<UPF version="2.0.1">
  <PP_INFO>

 Cs_ONCV_PBE-1.0.upf

 This pseudopotential file has been produced using the code
 ONCVPSP  (Optimized Norm-Conservinng Vanderbilt PSeudopotential)
 scalar-relativistic version 2.1.1, 03/26/2014 by D. R. Hamann
 The code is available through a link at URL www.mat-simresearch.com.
 Documentation with the package provides a full discription of the
 input data below.


 While it is not required under the terms of the GNU GPL, it is
 suggested that you cite D. R. Hamann, Phys. Rev. B 88, 085117 (2013)
 in any publication using these pseudopotentials.


 Copyright 2015 The Regents of the University of California
 
 This work is licensed under the Creative Commons Attribution-ShareAlike 
 4.0 International License. To view a copy of this license, visit 
 http://creativecommons.org/licenses/by-sa/4.0/ or send a letter to 
 Creative Commons, PO Box 1866, Mountain View, CA 94042, USA.
 
 This pseudopotential is part of the Schlipf-Gygi norm-conserving 
 pseudopotential library. Its construction parameters were tuned to 
 reproduce materials of a training set with very high accuracy and 
 should be suitable as a general purpose pseudopotential to treat a 
 variety of different compounds. For details of the construction and 
 testing of the pseudopotential please refer to:
 
 [insert reference to paper here]
 
 We kindly ask that you include this reference in all publications 
 associated to this pseudopotential.


    <PP_INPUTFILE>
# ATOM AND REFERENCE CONFIGURATION
# atsym  z    nc    nv    iexc   psfile
  Cs 55.00     9     3     4      upf
#
#   n    l    f        energy (Ha)
    1    0    2.00
    2    0    2.00
    2    1    6.00
    3    0    2.00
    3    1    6.00
    3    2   10.00
    4    0    2.00
    4    1    6.00
    4    2   10.00
    5    0    2.00
    5    1    6.00
    6    0    1.00
#
# PSEUDOPOTENTIAL AND OPTIMIZATION
# lmax
    2
#
#   l,   rc,     ep,   ncon, nbas, qcut
    0   2.56157  -0.98239    5    8   5.20348
    1   2.59231  -0.49679    5    8   5.12889
    2   2.78465   0.04878    5    8   6.06450
#
# LOCAL POTENTIAL
# lloc, lpopt,  rc(5),   dvloc0
    4    5   1.49756      0.00000
#
# VANDERBILT-KLEINMAN-BYLANDER PROJECTORs
# l, nproj, debl
    0    2   0.90572
    1    2   1.61084
    2    2   1.74359
#
# MODEL CORE CHARGE
# icmod, fcfact
    0   0.00000
#
# LOG DERIVATIVE ANALYSIS
# epsh1, epsh2, depsh
   -5.00    3.00    0.02
#
# OUTPUT GRID
# rlmax, drl
    6.00    0.01
#
# TEST CONFIGURATIONS
# ncnf
    0
# nvcnf
#   n    l    f
    </PP_INPUTFILE>
  </PP_INFO>
  <!--                               -->
  <!-- END OF HUMAN READABLE SECTION -->
  <!--                               -->
    <PP_HEADER
       generated="Generated using ONCVPSP code by D. R. Hamann"
       author="Martin Schlipf and Francois Gygi"
       date="150105"
       comment=""
       element="Cs"
       pseudo_type="NC"
       relativistic="scalar"
       is_ultrasoft="F"
       is_paw="F"
       is_coulomb="F"
       has_so="F"
       has_wfc="F"
       has_gipaw="F"
       core_correction="F"
       functional="PBE"
       z_valence="    9.00"
       total_psenergy="  -2.01871375598E+01"
       rho_cutoff="   6.01000000000E+00"
       l_max="2"
       l_local="-1"
       mesh_size="   602"
       number_of_wfc="0"
       number_of_proj="6"/>
 <PP_MESH>
   <PP_R type="real"  size=" 602" columns="8">
    0.0000    0.0100    0.0200    0.0300    0.0400    0.0500    0.0600    0.0700
    0.0800    0.0900    0.1000    0.1100    0.1200    0.1300    0.1400    0.1500
    0.1600    0.1700    0.1800    0.1900    0.2000    0.2100    0.2200    0.2300
    0.2400    0.2500    0.2600    0.2700    0.2800    0.2900    0.3000    0.3100
    0.3200    0.3300    0.3400    0.3500    0.3600    0.3700    0.3800    0.3900
    0.4000    0.4100    0.4200    0.4300    0.4400    0.4500    0.4600    0.4700
    0.4800    0.4900    0.5000    0.5100    0.5200    0.5300    0.5400    0.5500
    0.5600    0.5700    0.5800    0.5900    0.6000    0.6100    0.6200    0.6300
    0.6400    0.6500    0.6600    0.6700    0.6800    0.6900    0.7000    0.7100
    0.7200    0.7300    0.7400    0.7500    0.7600    0.7700    0.7800    0.7900
    0.8000    0.8100    0.8200    0.8300    0.8400    0.8500    0.8600    0.8700
    0.8800    0.8900    0.9000    0.9100    0.9200    0.9300    0.9400    0.9500
    0.9600    0.9700    0.9800    0.9900    1.0000    1.0100    1.0200    1.0300
    1.0400    1.0500    1.0600    1.0700    1.0800    1.0900    1.1000    1.1100
    1.1200    1.1300    1.1400    1.1500    1.1600    1.1700    1.1800    1.1900
    1.2000    1.2100    1.2200    1.2300    1.2400    1.2500    1.2600    1.2700
    1.2800    1.2900    1.3000    1.3100    1.3200    1.3300    1.3400    1.3500
    1.3600    1.3700    1.3800    1.3900    1.4000    1.4100    1.4200    1.4300
    1.4400    1.4500    1.4600    1.4700    1.4800    1.4900    1.5000    1.5100
    1.5200    1.5300    1.5400    1.5500    1.5600    1.5700    1.5800    1.5900
    1.6000    1.6100    1.6200    1.6300    1.6400    1.6500    1.6600    1.6700
    1.6800    1.6900    1.7000    1.7100    1.7200    1.7300    1.7400    1.7500
    1.7600    1.7700    1.7800    1.7900    1.8000    1.8100    1.8200    1.8300
    1.8400    1.8500    1.8600    1.8700    1.8800    1.8900    1.9000    1.9100
    1.9200    1.9300    1.9400    1.9500    1.9600    1.9700    1.9800    1.9900
    2.0000    2.0100    2.0200    2.0300    2.0400    2.0500    2.0600    2.0700
    2.0800    2.0900    2.1000    2.1100    2.1200    2.1300    2.1400    2.1500
    2.1600    2.1700    2.1800    2.1900    2.2000    2.2100    2.2200    2.2300
    2.2400    2.2500    2.2600    2.2700    2.2800    2.2900    2.3000    2.3100
    2.3200    2.3300    2.3400    2.3500    2.3600    2.3700    2.3800    2.3900
    2.4000    2.4100    2.4200    2.4300    2.4400    2.4500    2.4600    2.4700
    2.4800    2.4900    2.5000    2.5100    2.5200    2.5300    2.5400    2.5500
    2.5600    2.5700    2.5800    2.5900    2.6000    2.6100    2.6200    2.6300
    2.6400    2.6500    2.6600    2.6700    2.6800    2.6900    2.7000    2.7100
    2.7200    2.7300    2.7400    2.7500    2.7600    2.7700    2.7800    2.7900
    2.8000    2.8100    2.8200    2.8300    2.8400    2.8500    2.8600    2.8700
    2.8800    2.8900    2.9000    2.9100    2.9200    2.9300    2.9400    2.9500
    2.9600    2.9700    2.9800    2.9900    3.0000    3.0100    3.0200    3.0300
    3.0400    3.0500    3.0600    3.0700    3.0800    3.0900    3.1000    3.1100
    3.1200    3.1300    3.1400    3.1500    3.1600    3.1700    3.1800    3.1900
    3.2000    3.2100    3.2200    3.2300    3.2400    3.2500    3.2600    3.2700
    3.2800    3.2900    3.3000    3.3100    3.3200    3.3300    3.3400    3.3500
    3.3600    3.3700    3.3800    3.3900    3.4000    3.4100    3.4200    3.4300
    3.4400    3.4500    3.4600    3.4700    3.4800    3.4900    3.5000    3.5100
    3.5200    3.5300    3.5400    3.5500    3.5600    3.5700    3.5800    3.5900
    3.6000    3.6100    3.6200    3.6300    3.6400    3.6500    3.6600    3.6700
    3.6800    3.6900    3.7000    3.7100    3.7200    3.7300    3.7400    3.7500
    3.7600    3.7700    3.7800    3.7900    3.8000    3.8100    3.8200    3.8300
    3.8400    3.8500    3.8600    3.8700    3.8800    3.8900    3.9000    3.9100
    3.9200    3.9300    3.9400    3.9500    3.9600    3.9700    3.9800    3.9900
    4.0000    4.0100    4.0200    4.0300    4.0400    4.0500    4.0600    4.0700
    4.0800    4.0900    4.1000    4.1100    4.1200    4.1300    4.1400    4.1500
    4.1600    4.1700    4.1800    4.1900    4.2000    4.2100    4.2200    4.2300
    4.2400    4.2500    4.2600    4.2700    4.2800    4.2900    4.3000    4.3100
    4.3200    4.3300    4.3400    4.3500    4.3600    4.3700    4.3800    4.3900
    4.4000    4.4100    4.4200    4.4300    4.4400    4.4500    4.4600    4.4700
    4.4800    4.4900    4.5000    4.5100    4.5200    4.5300    4.5400    4.5500
    4.5600    4.5700    4.5800    4.5900    4.6000    4.6100    4.6200    4.6300
    4.6400    4.6500    4.6600    4.6700    4.6800    4.6900    4.7000    4.7100
    4.7200    4.7300    4.7400    4.7500    4.7600    4.7700    4.7800    4.7900
    4.8000    4.8100    4.8200    4.8300    4.8400    4.8500    4.8600    4.8700
    4.8800    4.8900    4.9000    4.9100    4.9200    4.9300    4.9400    4.9500
    4.9600    4.9700    4.9800    4.9900    5.0000    5.0100    5.0200    5.0300
    5.0400    5.0500    5.0600    5.0700    5.0800    5.0900    5.1000    5.1100
    5.1200    5.1300    5.1400    5.1500    5.1600    5.1700    5.1800    5.1900
    5.2000    5.2100    5.2200    5.2300    5.2400    5.2500    5.2600    5.2700
    5.2800    5.2900    5.3000    5.3100    5.3200    5.3300    5.3400    5.3500
    5.3600    5.3700    5.3800    5.3900    5.4000    5.4100    5.4200    5.4300
    5.4400    5.4500    5.4600    5.4700    5.4800    5.4900    5.5000    5.5100
    5.5200    5.5300    5.5400    5.5500    5.5600    5.5700    5.5800    5.5900
    5.6000    5.6100    5.6200    5.6300    5.6400    5.6500    5.6600    5.6700
    5.6800    5.6900    5.7000    5.7100    5.7200    5.7300    5.7400    5.7500
    5.7600    5.7700    5.7800    5.7900    5.8000    5.8100    5.8200    5.8300
    5.8400    5.8500    5.8600    5.8700    5.8800    5.8900    5.9000    5.9100
    5.9200    5.9300    5.9400    5.9500    5.9600    5.9700    5.9800    5.9900
    6.0000    6.0100
   </PP_R>
   <PP_RAB type="real"  size=" 602" columns="8">
    0.0100    0.0100    0.0100    0.0100    0.0100    0.0100    0.0100    0.0100
    0.0100    0.0100    0.0100    0.0100    0.0100    0.0100    0.0100    0.0100
    0.0100    0.0100    0.0100    0.0100    0.0100    0.0100    0.0100    0.0100
    0.0100    0.0100    0.0100    0.0100    0.0100    0.0100    0.0100    0.0100
    0.0100    0.0100    0.0100    0.0100    0.0100    0.0100    0.0100    0.0100
    0.0100    0.0100    0.0100    0.0100    0.0100    0.0100    0.0100    0.0100
    0.0100    0.0100    0.0100    0.0100    0.0100    0.0100    0.0100    0.0100
    0.0100    0.0100    0.0100    0.0100    0.0100    0.0100    0.0100    0.0100
    0.0100    0.0100    0.0100    0.0100    0.0100    0.0100    0.0100    0.0100
    0.0100    0.0100    0.0100    0.0100    0.0100    0.0100    0.0100    0.0100
    0.0100    0.0100    0.0100    0.0100    0.0100    0.0100    0.0100    0.0100
    0.0100    0.0100    0.0100    0.0100    0.0100    0.0100    0.0100    0.0100
    0.0100    0.0100    0.0100    0.0100    0.0100    0.0100    0.0100    0.0100
    0.0100    0.0100    0.0100    0.0100    0.0100    0.0100    0.0100    0.0100
    0.0100    0.0100    0.0100    0.0100    0.0100    0.0100    0.0100    0.0100
    0.0100    0.0100    0.0100    0.0100    0.0100    0.0100    0.0100    0.0100
    0.0100    0.0100    0.0100    0.0100    0.0100    0.0100    0.0100    0.0100
    0.0100    0.0100    0.0100    0.0100    0.0100    0.0100    0.0100    0.0100
    0.0100    0.0100    0.0100    0.0100    0.0100    0.0100    0.0100    0.0100
    0.0100    0.0100    0.0100    0.0100    0.0100    0.0100    0.0100    0.0100
    0.0100    0.0100    0.0100    0.0100    0.0100    0.0100    0.0100    0.0100
    0.0100    0.0100    0.0100    0.0100    0.0100    0.0100    0.0100    0.0100
    0.0100    0.0100    0.0100    0.0100    0.0100    0.0100    0.0100    0.0100
    0.0100    0.0100    0.0100    0.0100    0.0100    0.0100    0.0100    0.0100
    0.0100    0.0100    0.0100    0.0100    0.0100    0.0100    0.0100    0.0100
    0.0100    0.0100    0.0100    0.0100    0.0100    0.0100    0.0100    0.0100
    0.0100    0.0100    0.0100    0.0100    0.0100    0.0100    0.0100    0.0100
    0.0100    0.0100    0.0100    0.0100    0.0100    0.0100    0.0100    0.0100
    0.0100    0.0100    0.0100    0.0100    0.0100    0.0100    0.0100    0.0100
    0.0100    0.0100    0.0100    0.0100    0.0100    0.0100    0.0100    0.0100
    0.0100    0.0100    0.0100    0.0100    0.0100    0.0100    0.0100    0.0100
    0.0100    0.0100    0.0100    0.0100    0.0100    0.0100    0.0100    0.0100
    0.0100    0.0100    0.0100    0.0100    0.0100    0.0100    0.0100    0.0100
    0.0100    0.0100    0.0100    0.0100    0.0100    0.0100    0.0100    0.0100
    0.0100    0.0100    0.0100    0.0100    0.0100    0.0100    0.0100    0.0100
    0.0100    0.0100    0.0100    0.0100    0.0100    0.0100    0.0100    0.0100
    0.0100    0.0100    0.0100    0.0100    0.0100    0.0100    0.0100    0.0100
    0.0100    0.0100    0.0100    0.0100    0.0100    0.0100    0.0100    0.0100
    0.0100    0.0100    0.0100    0.0100    0.0100    0.0100    0.0100    0.0100
    0.0100    0.0100    0.0100    0.0100    0.0100    0.0100    0.0100    0.0100
    0.0100    0.0100    0.0100    0.0100    0.0100    0.0100    0.0100    0.0100
    0.0100    0.0100    0.0100    0.0100    0.0100    0.0100    0.0100    0.0100
    0.0100    0.0100    0.0100    0.0100    0.0100    0.0100    0.0100    0.0100
    0.0100    0.0100    0.0100    0.0100    0.0100    0.0100    0.0100    0.0100
    0.0100    0.0100    0.0100    0.0100    0.0100    0.0100    0.0100    0.0100
    0.0100    0.0100    0.0100    0.0100    0.0100    0.0100    0.0100    0.0100
    0.0100    0.0100    0.0100    0.0100    0.0100    0.0100    0.0100    0.0100
    0.0100    0.0100    0.0100    0.0100    0.0100    0.0100    0.0100    0.0100
    0.0100    0.0100    0.0100    0.0100    0.0100    0.0100    0.0100    0.0100
    0.0100    0.0100    0.0100    0.0100    0.0100    0.0100    0.0100    0.0100
    0.0100    0.0100    0.0100    0.0100    0.0100    0.0100    0.0100    0.0100
    0.0100    0.0100    0.0100    0.0100    0.0100    0.0100    0.0100    0.0100
    0.0100    0.0100    0.0100    0.0100    0.0100    0.0100    0.0100    0.0100
    0.0100    0.0100    0.0100    0.0100    0.0100    0.0100    0.0100    0.0100
    0.0100    0.0100    0.0100    0.0100    0.0100    0.0100    0.0100    0.0100
    0.0100    0.0100    0.0100    0.0100    0.0100    0.0100    0.0100    0.0100
    0.0100    0.0100    0.0100    0.0100    0.0100    0.0100    0.0100    0.0100
    0.0100    0.0100    0.0100    0.0100    0.0100    0.0100    0.0100    0.0100
    0.0100    0.0100    0.0100    0.0100    0.0100    0.0100    0.0100    0.0100
    0.0100    0.0100    0.0100    0.0100    0.0100    0.0100    0.0100    0.0100
    0.0100    0.0100    0.0100    0.0100    0.0100    0.0100    0.0100    0.0100
    0.0100    0.0100    0.0100    0.0100    0.0100    0.0100    0.0100    0.0100
    0.0100    0.0100    0.0100    0.0100    0.0100    0.0100    0.0100    0.0100
    0.0100    0.0100    0.0100    0.0100    0.0100    0.0100    0.0100    0.0100
    0.0100    0.0100    0.0100    0.0100    0.0100    0.0100    0.0100    0.0100
    0.0100    0.0100    0.0100    0.0100    0.0100    0.0100    0.0100    0.0100
    0.0100    0.0100    0.0100    0.0100    0.0100    0.0100    0.0100    0.0100
    0.0100    0.0100    0.0100    0.0100    0.0100    0.0100    0.0100    0.0100
    0.0100    0.0100    0.0100    0.0100    0.0100    0.0100    0.0100    0.0100
    0.0100    0.0100    0.0100    0.0100    0.0100    0.0100    0.0100    0.0100
    0.0100    0.0100    0.0100    0.0100    0.0100    0.0100    0.0100    0.0100
    0.0100    0.0100    0.0100    0.0100    0.0100    0.0100    0.0100    0.0100
    0.0100    0.0100    0.0100    0.0100    0.0100    0.0100    0.0100    0.0100
    0.0100    0.0100    0.0100    0.0100    0.0100    0.0100    0.0100    0.0100
    0.0100    0.0100    0.0100    0.0100    0.0100    0.0100    0.0100    0.0100
    0.0100    0.0100
   </PP_RAB>
 </PP_MESH>
  <PP_LOCAL type="real"  size=" 602" columns="4">
   -3.1706721442E+01   -3.1698525431E+01   -3.1679541490E+01   -3.1652554136E+01
   -3.1620347887E+01   -3.1584323427E+01   -3.1545125350E+01   -3.1503045919E+01
   -3.1458220345E+01   -3.1410715066E+01   -3.1360567746E+01   -3.1307805696E+01
   -3.1252454455E+01   -3.1194541761E+01   -3.1134099318E+01   -3.1071163488E+01
   -3.1005775459E+01   -3.0937981153E+01   -3.0867830983E+01   -3.0795379529E+01
   -3.0720685124E+01   -3.0643809374E+01   -3.0564816583E+01   -3.0483773086E+01
   -3.0400746476E+01   -3.0315804715E+01   -3.0229015144E+01   -3.0140443364E+01
   -3.0050152031E+01   -2.9958199545E+01   -2.9864638669E+01   -2.9769515103E+01
   -2.9672866035E+01   -2.9574718673E+01   -2.9475088898E+01   -2.9373979934E+01
   -2.9271381242E+01   -2.9167267514E+01   -2.9061598034E+01   -2.8954316261E+01
   -2.8845349716E+01   -2.8734610377E+01   -2.8621995401E+01   -2.8507388318E+01
   -2.8390660668E+01   -2.8271674095E+01   -2.8150282856E+01   -2.8026336714E+01
   -2.7899684160E+01   -2.7770175936E+01   -2.7637668699E+01   -2.7502028638E+01
   -2.7363135471E+01   -2.7220885833E+01   -2.7075196432E+01   -2.6926007721E+01
   -2.6773285255E+01   -2.6617023186E+01   -2.6457243765E+01   -2.6294000010E+01
   -2.6127373580E+01   -2.5957475729E+01   -2.5784444667E+01   -2.5608443410E+01
   -2.5429657874E+01   -2.5248292510E+01   -2.5064566968E+01   -2.4878712611E+01
   -2.4690967868E+01   -2.4501574501E+01   -2.4310773874E+01   -2.4118803223E+01
   -2.3925892693E+01   -2.3732262710E+01   -2.3538121896E+01   -2.3343665567E+01
   -2.3149074737E+01   -2.2954515306E+01   -2.2760138437E+01   -2.2566080751E+01
   -2.2372464991E+01   -2.2179400911E+01   -2.1986986333E+01   -2.1795308291E+01
   -2.1604444216E+01   -2.1414463102E+01   -2.1225426617E+01   -2.1037390140E+01
   -2.0850403687E+01   -2.0664512739E+01   -2.0479758948E+01   -2.0296180740E+01
   -2.0113813810E+01   -1.9932691526E+01   -1.9752845256E+01   -1.9574304593E+01
   -1.9397097504E+01   -1.9221250528E+01   -1.9046788834E+01   -1.8873736286E+01
   -1.8702115473E+01   -1.8531947748E+01   -1.8363253277E+01   -1.8196050868E+01
   -1.8030358169E+01   -1.7866191625E+01   -1.7703566494E+01   -1.7542496968E+01
   -1.7382995943E+01   -1.7225075294E+01   -1.7068745900E+01   -1.6914017738E+01
   -1.6760899857E+01   -1.6609400433E+01   -1.6459527002E+01   -1.6311286521E+01
   -1.6164685341E+01   -1.6019729343E+01   -1.5876424097E+01   -1.5734774910E+01
   -1.5594786786E+01   -1.5456464620E+01   -1.5319813200E+01   -1.5184837207E+01
   -1.5051541254E+01   -1.4919929891E+01   -1.4790007591E+01   -1.4661778643E+01
   -1.4535247207E+01   -1.4410417204E+01   -1.4287292062E+01   -1.4165874957E+01
   -1.4046168384E+01   -1.3928173926E+01   -1.3811892867E+01   -1.3697324808E+01
   -1.3584468385E+01   -1.3473321457E+01   -1.3363879146E+01   -1.3256136113E+01
   -1.3150084365E+01   -1.3045713568E+01   -1.2943012733E+01   -1.2841965880E+01
   -1.2742556975E+01   -1.2644765418E+01   -1.2548568137E+01   -1.2453940167E+01
   -1.2360850389E+01   -1.2269268682E+01   -1.2179156103E+01   -1.2090475598E+01
   -1.2003188421E+01   -1.1917258610E+01   -1.1832652653E+01   -1.1749339838E+01
   -1.1667290095E+01   -1.1586476773E+01   -1.1506872528E+01   -1.1428453534E+01
   -1.1351194796E+01   -1.1275074276E+01   -1.1200069009E+01   -1.1126158109E+01
   -1.1053320159E+01   -1.0981535190E+01   -1.0910782921E+01   -1.0841044135E+01
   -1.0772299412E+01   -1.0704530174E+01   -1.0637717678E+01   -1.0571843919E+01
   -1.0506890708E+01   -1.0442840579E+01   -1.0379675819E+01   -1.0317379488E+01
   -1.0255934295E+01   -1.0195323830E+01   -1.0135531185E+01   -1.0076540463E+01
   -1.0018335214E+01   -9.9608999429E+00   -9.9042187425E+00   -9.8482764575E+00
   -9.7930577727E+00   -9.7385478377E+00   -9.6847319744E+00   -9.6315955999E+00
   -9.5791247209E+00   -9.5273049871E+00   -9.4761230832E+00   -9.4255650163E+00
   -9.3756179397E+00   -9.3262685295E+00   -9.2775041320E+00   -9.2293122472E+00
   -9.1816803459E+00   -9.1345968055E+00   -9.0880492328E+00   -9.0420266739E+00
   -8.9965174640E+00   -8.9515107164E+00   -8.9069957809E+00   -8.8629617427E+00
   -8.8193989061E+00   -8.7762967041E+00   -8.7336458324E+00   -8.6914367228E+00
   -8.6496599263E+00   -8.6083070104E+00   -8.5673686268E+00   -8.5268369176E+00
   -8.4867035591E+00   -8.4469604116E+00   -8.4076003667E+00   -8.3686153825E+00
   -8.3299988291E+00   -8.2917437887E+00   -8.2538432047E+00   -8.2162913124E+00
   -8.1790814431E+00   -8.1422078996E+00   -8.1056652784E+00   -8.0694473658E+00
   -8.0335496654E+00   -7.9979668933E+00   -7.9626939805E+00   -7.9277267861E+00
   -7.8930604137E+00   -7.8586907925E+00   -7.8246140761E+00   -7.7908257778E+00
   -7.7573226215E+00   -7.7241009501E+00   -7.6911569102E+00   -7.6584875777E+00
   -7.6260895462E+00   -7.5939595516E+00   -7.5620948290E+00   -7.5304922436E+00
   -7.4991489339E+00   -7.4680622459E+00   -7.4372292794E+00   -7.4066474024E+00
   -7.3763140290E+00   -7.3462264440E+00   -7.3163821020E+00   -7.2867784464E+00
   -7.2574128862E+00   -7.2282828638E+00   -7.1993858158E+00   -7.1707192099E+00
   -7.1422804263E+00   -7.1140668653E+00   -7.0860759763E+00   -7.0583050963E+00
   -7.0307515885E+00   -7.0034127679E+00   -6.9762860852E+00   -6.9493689660E+00
   -6.9226585952E+00   -6.8961526952E+00   -6.8698489528E+00   -6.8437448061E+00
   -6.8178380614E+00   -6.7921265978E+00   -6.7666081335E+00   -6.7412804962E+00
   -6.7161416161E+00   -6.6911892969E+00   -6.6664213771E+00   -6.6418359590E+00
   -6.6174310043E+00   -6.5932043771E+00   -6.5691542907E+00   -6.5452788194E+00
   -6.5215759078E+00   -6.4980438084E+00   -6.4746807138E+00   -6.4514847063E+00
   -6.4284540080E+00   -6.4055869447E+00   -6.3828817394E+00   -6.3603365719E+00
   -6.3379498961E+00   -6.3157200476E+00   -6.2936452456E+00   -6.2717239767E+00
   -6.2499546834E+00   -6.2283357231E+00   -6.2068655082E+00   -6.1855426144E+00
   -6.1643655307E+00   -6.1433326218E+00   -6.1224425551E+00   -6.1016939007E+00
   -6.0810851604E+00   -6.0606149013E+00   -6.0402818289E+00   -6.0200845707E+00
   -6.0000216417E+00   -5.9800918194E+00   -5.9602938124E+00   -5.9406262743E+00
   -5.9210878598E+00   -5.9016774121E+00   -5.8823936836E+00   -5.8632353447E+00
   -5.8442012223E+00   -5.8252901710E+00   -5.8065010011E+00   -5.7878324085E+00
   -5.7692833681E+00   -5.7508527484E+00   -5.7325393838E+00   -5.7143420963E+00
   -5.6962598913E+00   -5.6782916870E+00   -5.6604363436E+00   -5.6426928011E+00
   -5.6250600874E+00   -5.6075371705E+00   -5.5901229414E+00   -5.5728164402E+00
   -5.5556167196E+00   -5.5385227953E+00   -5.5215335933E+00   -5.5046482361E+00
   -5.4878658048E+00   -5.4711853607E+00   -5.4546058676E+00   -5.4381265148E+00
   -5.4217464155E+00   -5.4054646740E+00   -5.3892802952E+00   -5.3731925202E+00
   -5.3572004975E+00   -5.3413033730E+00   -5.3255001945E+00   -5.3097902414E+00
   -5.2941727013E+00   -5.2786467593E+00   -5.2632115087E+00   -5.2478662544E+00
   -5.2326102259E+00   -5.2174426462E+00   -5.2023626562E+00   -5.1873695740E+00
   -5.1724626744E+00   -5.1576412161E+00   -5.1429043904E+00   -5.1282515171E+00
   -5.1136819187E+00   -5.0991948883E+00   -5.0847896702E+00   -5.0704655748E+00
   -5.0562219749E+00   -5.0420581960E+00   -5.0279735386E+00   -5.0139672939E+00
   -5.0000388860E+00   -4.9861876716E+00   -4.9724130077E+00   -4.9587141652E+00
   -4.9450906127E+00   -4.9315417392E+00   -4.9180669314E+00   -4.9046655200E+00
   -4.8913369314E+00   -4.8780806141E+00   -4.8648959829E+00   -4.8517824325E+00
   -4.8387393384E+00   -4.8257662085E+00   -4.8128624850E+00   -4.8000276099E+00
   -4.7872609597E+00   -4.7745620434E+00   -4.7619303478E+00   -4.7493653408E+00
   -4.7368664669E+00   -4.7244331651E+00   -4.7120649873E+00   -4.6997614262E+00
   -4.6875219746E+00   -4.6753460670E+00   -4.6632332482E+00   -4.6511830574E+00
   -4.6391950109E+00   -4.6272686160E+00   -4.6154033314E+00   -4.6035987647E+00
   -4.5918544547E+00   -4.5801699403E+00   -4.5685447255E+00   -4.5569783500E+00
   -4.5454704173E+00   -4.5340204875E+00   -4.5226281210E+00   -4.5112928236E+00
   -4.5000142032E+00   -4.4887918619E+00   -4.4776253803E+00   -4.4665143393E+00
   -4.4554582512E+00   -4.4444567790E+00   -4.4335095272E+00   -4.4226160960E+00
   -4.4117760780E+00   -4.4009890196E+00   -4.3902546029E+00   -4.3795724469E+00
   -4.3689421705E+00   -4.3583633773E+00   -4.3478356499E+00   -4.3373586799E+00
   -4.3269321040E+00   -4.3165555588E+00   -4.3062286629E+00   -4.2959510243E+00
   -4.2857223473E+00   -4.2755422855E+00   -4.2654104925E+00   -4.2553266049E+00
   -4.2452902466E+00   -4.2353011375E+00   -4.2253589474E+00   -4.2154633459E+00
   -4.2056139913E+00   -4.1958105134E+00   -4.1860526509E+00   -4.1763400891E+00
   -4.1666725130E+00   -4.1570496052E+00   -4.1474709931E+00   -4.1379364370E+00
   -4.1284456365E+00   -4.1189982915E+00   -4.1095941017E+00   -4.1002327145E+00
   -4.0909138836E+00   -4.0816373326E+00   -4.0724027755E+00   -4.0632099259E+00
   -4.0540584615E+00   -4.0449481141E+00   -4.0358786363E+00   -4.0268497553E+00
   -4.0178611982E+00   -4.0089126760E+00   -4.0000038911E+00   -3.9911346271E+00
   -3.9823046240E+00   -3.9735136214E+00   -3.9647613592E+00   -3.9560475263E+00
   -3.9473719167E+00   -3.9387342895E+00   -3.9301343966E+00   -3.9215719900E+00
   -3.9130467968E+00   -3.9045585658E+00   -3.8961070933E+00   -3.8876921427E+00
   -3.8793134774E+00   -3.8709708611E+00   -3.8626640068E+00   -3.8543927335E+00
   -3.8461568205E+00   -3.8379560423E+00   -3.8297901736E+00   -3.8216589705E+00
   -3.8135621928E+00   -3.8054996620E+00   -3.7974711631E+00   -3.7894764811E+00
   -3.7815154011E+00   -3.7735876716E+00   -3.7656931039E+00   -3.7578315101E+00
   -3.7500026852E+00   -3.7422064242E+00   -3.7344425222E+00   -3.7267107246E+00
   -3.7190108837E+00   -3.7113428057E+00   -3.7037062952E+00   -3.6961011569E+00
   -3.6885271857E+00   -3.6809841565E+00   -3.6734719240E+00   -3.6659903018E+00
   -3.6585391037E+00   -3.6511181435E+00   -3.6437272183E+00   -3.6363661281E+00
   -3.6290347283E+00   -3.6217328415E+00   -3.6144602899E+00   -3.6072168961E+00
   -3.6000024625E+00   -3.5928168061E+00   -3.5856597861E+00   -3.5785312333E+00
   -3.5714309785E+00   -3.5643588522E+00   -3.5573146656E+00   -3.5502982443E+00
   -3.5433094546E+00   -3.5363481353E+00   -3.5294141249E+00   -3.5225072620E+00
   -3.5156273690E+00   -3.5087742730E+00   -3.5019478503E+00   -3.4951479469E+00
   -3.4883744090E+00   -3.4816270827E+00   -3.4749058047E+00   -3.4682103963E+00
   -3.4615407464E+00   -3.4548967082E+00   -3.4482781351E+00   -3.4416848803E+00
   -3.4351167971E+00   -3.4285736957E+00   -3.4220554789E+00   -3.4155620069E+00
   -3.4090931401E+00   -3.4026487386E+00   -3.3962286624E+00   -3.3898327414E+00
   -3.3834608577E+00   -3.3771128907E+00   -3.3707887071E+00   -3.3644881734E+00
   -3.3582111565E+00   -3.3519575084E+00   -3.3457270847E+00   -3.3395197857E+00
   -3.3333354844E+00   -3.3271740536E+00   -3.3210353663E+00   -3.3149192951E+00
   -3.3088256765E+00   -3.3027544209E+00   -3.2967054112E+00   -3.2906785263E+00
   -3.2846736450E+00   -3.2786906460E+00   -3.2727293926E+00   -3.2667897565E+00
   -3.2608716467E+00   -3.2549749478E+00   -3.2490995441E+00   -3.2432453200E+00
   -3.2374121601E+00   -3.2315999180E+00   -3.2258085046E+00   -3.2200378182E+00
   -3.2142877484E+00   -3.2085581853E+00   -3.2028490185E+00   -3.1971601335E+00
   -3.1914913914E+00   -3.1858427208E+00   -3.1802140165E+00   -3.1746051736E+00
   -3.1690160870E+00   -3.1634466516E+00   -3.1578967489E+00   -3.1523662650E+00
   -3.1468551238E+00   -3.1413632251E+00   -3.1358904687E+00   -3.1304367545E+00
   -3.1250019823E+00   -3.1195860327E+00   -3.1141888098E+00   -3.1088102355E+00
   -3.1034502142E+00   -3.0981086504E+00   -3.0927854488E+00   -3.0874805137E+00
   -3.0821937282E+00   -3.0769250067E+00   -3.0716742725E+00   -3.0664414343E+00
   -3.0612264013E+00   -3.0560290823E+00   -3.0508493863E+00   -3.0456872012E+00
   -3.0405424457E+00   -3.0354150469E+00   -3.0303049178E+00   -3.0252119717E+00
   -3.0201361218E+00   -3.0150772813E+00   -3.0100353458E+00   -3.0050102316E+00
   -3.0000018726E+00   -2.9950101859E+00
  </PP_LOCAL>
 <PP_NONLOCAL>
   <PP_BETA.1
       type="real"
       size=" 602"
       columns="4"
       index="1"
       angular_momentum="0"
       cutoff_radius_index=" 282"
       cutoff_radius="    2.8100000000E+00" >
    0.0000000000E+00   -1.6403076951E-02   -3.2831439357E-02   -4.9310234025E-02
   -6.5864330982E-02   -8.2518186388E-02   -9.9295707000E-02   -1.1622011670E-01
   -1.3331382561E-01   -1.5059830222E-01   -1.6809394913E-01   -1.8581998276E-01
   -2.0379431754E-01   -2.2203345506E-01   -2.4055237853E-01   -2.5936445297E-01
   -2.7848133164E-01   -2.9791286883E-01   -3.1766703967E-01   -3.3774986698E-01
   -3.5816535570E-01   -3.7891543492E-01   -3.9999990808E-01   -4.2141641122E-01
   -4.4316037977E-01   -4.6522502358E-01   -4.8760131120E-01   -5.1027796220E-01
   -5.3324144895E-01   -5.5647600697E-01   -5.7996365421E-01   -6.0368421923E-01
   -6.2761537804E-01   -6.5173269987E-01   -6.7600970120E-01   -7.0041790864E-01
   -7.2492692928E-01   -7.4950453052E-01   -7.7411672560E-01   -7.9872786782E-01
   -8.2330075326E-01   -8.4779672749E-01   -8.7217580074E-01   -8.9639676868E-01
   -9.2041733905E-01   -9.4419426344E-01   -9.6768347399E-01   -9.9084022178E-01
   -1.0136192271E+00   -1.0359748254E+00   -1.0578611176E+00   -1.0792321141E+00
   -1.1000419142E+00   -1.1202448417E+00   -1.1397955958E+00   -1.1586494473E+00
   -1.1767623302E+00   -1.1940910803E+00   -1.2105934922E+00   -1.2262285778E+00
   -1.2409566061E+00   -1.2547393461E+00   -1.2675401472E+00   -1.2793240723E+00
   -1.2900581010E+00   -1.2997111758E+00   -1.3082543323E+00   -1.3156608927E+00
   -1.3219064886E+00   -1.3269691820E+00   -1.3308295533E+00   -1.3334708437E+00
   -1.3348789623E+00   -1.3350425770E+00   -1.3339531732E+00   -1.3316050992E+00
   -1.3279956072E+00   -1.3231249115E+00   -1.3169961690E+00   -1.3096155039E+00
   -1.3009920088E+00   -1.2911377343E+00   -1.2800676691E+00   -1.2677997105E+00
   -1.2543546234E+00   -1.2397559911E+00   -1.2240301553E+00   -1.2072061461E+00
   -1.1893156042E+00   -1.1703926922E+00   -1.1504739983E+00   -1.1295984306E+00