<UPF version="2.0.1">
  <PP_INFO>

 Te_ONCV_PBE_FR-1.1.upf

 This pseudopotential file has been produced using the code
 ONCVPSP  (Optimized Norm-Conservinng Vanderbilt PSeudopotential)
 fully-relativistic version 2.1.1, 03/26/2014 by D. R. Hamann
 The code is available through a link at URL www.mat-simresearch.com.
 Documentation with the package provides a full description of the
 input data below.

 While it is not required under the terms of the GNU GPL, it is
 suggested that you cite D. R. Hamann, Phys. Rev. B 88, 085117 (2013)
 in any publication using these pseudopotentials.

 -----

 This pseudopotential was produced with the SG15 1.0 and/or 1.1
 parameter sets, the Schlipf-Gygi norm-conserving pseudopotential
 library. For details of the construction and testing of the
 pseudopotential please refer to:

 M. Schlipf, F. Gygi, Comp. Phys. Comm. 196, 36 (2015)
 http://dx.doi.org/10.1016/j.cpc.2015.05.011

 The above authors kindly ask that you include this reference in all
 publications associated to this pseudopotential.

 Please note this fully-relativistic version does not employ the
 above self-consistent procedure at the fully-relativistic level.

 -----

 This pseudopotential was produced by Peter Scherpelz for the purpose
 of performing GW calculations with spin-orbit-coupling. Please see
 the publication:

 P. Scherpelz, M. Govoni, I. Hamada, G. Galli; J. Chem. Theory Comput. (2016)
 http://dx.doi.org/10.1021/acs.jctc.6b00114

 If you use these pseudopotentials in your work, we also kindly ask
 that you cite the above publication.

 -----

 This work is licensed under the Creative Commons Attribution-ShareAlike 
 4.0 International License. To view a copy of this license, visit 
 http://creativecommons.org/licenses/by-sa/4.0/ or send a letter to 
 Creative Commons, PO Box 1866, Mountain View, CA 94042, USA.

 The SG15 library is Copyright 2015 The Regents of the University of
 California.  Further modifications of these files are Copyright 2016
 Peter Scherpelz.

    <PP_INPUTFILE>
# ATOM AND REFERENCE CONFIGURATION
# atsym  z    nc    nv    iexc   psfile
  Te 52.00     8     3     4      upf
#
#   n    l    f        energy (Ha)
    1    0    2.00
    2    0    2.00
    2    1    6.00
    3    0    2.00
    3    1    6.00
    3    2   10.00
    4    0    2.00
    4    1    6.00
    4    2   10.00
    5    0    2.00
    5    1    4.00
#
# PSEUDOPOTENTIAL AND OPTIMIZATION
# lmax
    2
#
#   l,   rc,     ep,   ncon, nbas, qcut
    0    2.49   -0.55    5    8    3.10
    1    3.13   -0.21    5    8    4.97
    2    2.77   -1.51    5    8    7.44
#
# LOCAL POTENTIAL
# lloc, lpopt,  rc(5),   dvloc0
    4    5      1.81       0.00
#
# VANDERBILT-KLEINMAN-BYLANDER PROJECTORs
# l, nproj, debl
    0    2    1.1561
    1    2    0.6863
    2    2    1.5697
#
# MODEL CORE CHARGE
# icmod, fcfact
    0    0.00
#
# LOG DERIVATIVE ANALYSIS
# epsh1, epsh2, depsh
   -5.00    3.00    0.02
#
# OUTPUT GRID
# rlmax, drl
    6.00    0.01
#
# TEST CONFIGURATIONS
# ncnf
    0
# nvcnf
#   n    l    f
    </PP_INPUTFILE>
  </PP_INFO>
  <!--                               -->
  <!-- END OF HUMAN READABLE SECTION -->
  <!--                               -->
    <PP_HEADER
       generated="Generated using ONCVPSP code by D. R. Hamann"
       author="anonymous"
       date="150703"
       comment=""
       element="Te"
       pseudo_type="NC"
       relativistic="full"
       is_ultrasoft="F"
       is_paw="F"
       is_coulomb="F"
       has_so="T"
       has_wfc="F"
       has_gipaw="F"
       core_correction="F"
       functional="PBE"
       z_valence="   16.00"
       total_psenergy="  -8.72800482830E+01"
       rho_cutoff="   6.01000000000E+00"
       l_max="2"
       l_local="-1"
       mesh_size="   602"
       number_of_wfc="0"
       number_of_proj="10"/>
 <PP_MESH>
   <PP_R type="real"  size=" 602" columns="8">
    0.0000    0.0100    0.0200    0.0300    0.0400    0.0500    0.0600    0.0700
    0.0800    0.0900    0.1000    0.1100    0.1200    0.1300    0.1400    0.1500
    0.1600    0.1700    0.1800    0.1900    0.2000    0.2100    0.2200    0.2300
    0.2400    0.2500    0.2600    0.2700    0.2800    0.2900    0.3000    0.3100
    0.3200    0.3300    0.3400    0.3500    0.3600    0.3700    0.3800    0.3900
    0.4000    0.4100    0.4200    0.4300    0.4400    0.4500    0.4600    0.4700
    0.4800    0.4900    0.5000    0.5100    0.5200    0.5300    0.5400    0.5500
    0.5600    0.5700    0.5800    0.5900    0.6000    0.6100    0.6200    0.6300
    0.6400    0.6500    0.6600    0.6700    0.6800    0.6900    0.7000    0.7100
    0.7200    0.7300    0.7400    0.7500    0.7600    0.7700    0.7800    0.7900
    0.8000    0.8100    0.8200    0.8300    0.8400    0.8500    0.8600    0.8700
    0.8800    0.8900    0.9000    0.9100    0.9200    0.9300    0.9400    0.9500
    0.9600    0.9700    0.9800    0.9900    1.0000    1.0100    1.0200    1.0300
    1.0400    1.0500    1.0600    1.0700    1.0800    1.0900    1.1000    1.1100
    1.1200    1.1300    1.1400    1.1500    1.1600    1.1700    1.1800    1.1900
    1.2000    1.2100    1.2200    1.2300    1.2400    1.2500    1.2600    1.2700
    1.2800    1.2900    1.3000    1.3100    1.3200    1.3300    1.3400    1.3500
    1.3600    1.3700    1.3800    1.3900    1.4000    1.4100    1.4200    1.4300
    1.4400    1.4500    1.4600    1.4700    1.4800    1.4900    1.5000    1.5100
    1.5200    1.5300    1.5400    1.5500    1.5600    1.5700    1.5800    1.5900
    1.6000    1.6100    1.6200    1.6300    1.6400    1.6500    1.6600    1.6700
    1.6800    1.6900    1.7000    1.7100    1.7200    1.7300    1.7400    1.7500
    1.7600    1.7700    1.7800    1.7900    1.8000    1.8100    1.8200    1.8300
    1.8400    1.8500    1.8600    1.8700    1.8800    1.8900    1.9000    1.9100
    1.9200    1.9300    1.9400    1.9500    1.9600    1.9700    1.9800    1.9900
    2.0000    2.0100    2.0200    2.0300    2.0400    2.0500    2.0600    2.0700
    2.0800    2.0900    2.1000    2.1100    2.1200    2.1300    2.1400    2.1500
    2.1600    2.1700    2.1800    2.1900    2.2000    2.2100    2.2200    2.2300
    2.2400    2.2500    2.2600    2.2700    2.2800    2.2900    2.3000    2.3100
    2.3200    2.3300    2.3400    2.3500    2.3600    2.3700    2.3800    2.3900
    2.4000    2.4100    2.4200    2.4300    2.4400    2.4500    2.4600    2.4700
    2.4800    2.4900    2.5000    2.5100    2.5200    2.5300    2.5400    2.5500
    2.5600    2.5700    2.5800    2.5900    2.6000    2.6100    2.6200    2.6300
    2.6400    2.6500    2.6600    2.6700    2.6800    2.6900    2.7000    2.7100
    2.7200    2.7300    2.7400    2.7500    2.7600    2.7700    2.7800    2.7900
    2.8000    2.8100    2.8200    2.8300    2.8400    2.8500    2.8600    2.8700
    2.8800    2.8900    2.9000    2.9100    2.9200    2.9300    2.9400    2.9500
    2.9600    2.9700    2.9800    2.9900    3.0000    3.0100    3.0200    3.0300
    3.0400    3.0500    3.0600    3.0700    3.0800    3.0900    3.1000    3.1100
    3.1200    3.1300    3.1400    3.1500    3.1600    3.1700    3.1800    3.1900
    3.2000    3.2100    3.2200    3.2300    3.2400    3.2500    3.2600    3.2700
    3.2800    3.2900    3.3000    3.3100    3.3200    3.3300    3.3400    3.3500
    3.3600    3.3700    3.3800    3.3900    3.4000    3.4100    3.4200    3.4300
    3.4400    3.4500    3.4600    3.4700    3.4800    3.4900    3.5000    3.5100
    3.5200    3.5300    3.5400    3.5500    3.5600    3.5700    3.5800    3.5900
    3.6000    3.6100    3.6200    3.6300    3.6400    3.6500    3.6600    3.6700
    3.6800    3.6900    3.7000    3.7100    3.7200    3.7300    3.7400    3.7500
    3.7600    3.7700    3.7800    3.7900    3.8000    3.8100    3.8200    3.8300
    3.8400    3.8500    3.8600    3.8700    3.8800    3.8900    3.9000    3.9100
    3.9200    3.9300    3.9400    3.9500    3.9600    3.9700    3.9800    3.9900
    4.0000    4.0100    4.0200    4.0300    4.0400    4.0500    4.0600    4.0700
    4.0800    4.0900    4.1000    4.1100    4.1200    4.1300    4.1400    4.1500
    4.1600    4.1700    4.1800    4.1900    4.2000    4.2100    4.2200    4.2300
    4.2400    4.2500    4.2600    4.2700    4.2800    4.2900    4.3000    4.3100
    4.3200    4.3300    4.3400    4.3500    4.3600    4.3700    4.3800    4.3900
    4.4000    4.4100    4.4200    4.4300    4.4400    4.4500    4.4600    4.4700
    4.4800    4.4900    4.5000    4.5100    4.5200    4.5300    4.5400    4.5500
    4.5600    4.5700    4.5800    4.5900    4.6000    4.6100    4.6200    4.6300
    4.6400    4.6500    4.6600    4.6700    4.6800    4.6900    4.7000    4.7100
    4.7200    4.7300    4.7400    4.7500    4.7600    4.7700    4.7800    4.7900
    4.8000    4.8100    4.8200    4.8300    4.8400    4.8500    4.8600    4.8700
    4.8800    4.8900    4.9000    4.9100    4.9200    4.9300    4.9400    4.9500
    4.9600    4.9700    4.9800    4.9900    5.0000    5.0100    5.0200    5.0300
    5.0400    5.0500    5.0600    5.0700    5.0800    5.0900    5.1000    5.1100
    5.1200    5.1300    5.1400    5.1500    5.1600    5.1700    5.1800    5.1900
    5.2000    5.2100    5.2200    5.2300    5.2400    5.2500    5.2600    5.2700
    5.2800    5.2900    5.3000    5.3100    5.3200    5.3300    5.3400    5.3500
    5.3600    5.3700    5.3800    5.3900    5.4000    5.4100    5.4200    5.4300
    5.4400    5.4500    5.4600    5.4700    5.4800    5.4900    5.5000    5.5100
    5.5200    5.5300    5.5400    5.5500    5.5600    5.5700    5.5800    5.5900
    5.6000    5.6100    5.6200    5.6300    5.6400    5.6500    5.6600    5.6700
    5.6800    5.6900    5.7000    5.7100    5.7200    5.7300    5.7400    5.7500
    5.7600    5.7700    5.7800    5.7900    5.8000    5.8100    5.8200    5.8300
    5.8400    5.8500    5.8600    5.8700    5.8800    5.8900    5.9000    5.9100
    5.9200    5.9300    5.9400    5.9500    5.9600    5.9700    5.9800    5.9900
    6.0000    6.0100
   </PP_R>
   <PP_RAB type="real"  size=" 602" columns="8">
    0.0100    0.0100    0.0100    0.0100    0.0100    0.0100    0.0100    0.0100
    0.0100    0.0100    0.0100    0.0100    0.0100    0.0100    0.0100    0.0100
    0.0100    0.0100    0.0100    0.0100    0.0100    0.0100    0.0100    0.0100
    0.0100    0.0100    0.0100    0.0100    0.0100    0.0100    0.0100    0.0100
    0.0100    0.0100    0.0100    0.0100    0.0100    0.0100    0.0100    0.0100
    0.0100    0.0100    0.0100    0.0100    0.0100    0.0100    0.0100    0.0100
    0.0100    0.0100    0.0100    0.0100    0.0100    0.0100    0.0100    0.0100
    0.0100    0.0100    0.0100    0.0100    0.0100    0.0100    0.0100    0.0100
    0.0100    0.0100    0.0100    0.0100    0.0100    0.0100    0.0100    0.0100
    0.0100    0.0100    0.0100    0.0100    0.0100    0.0100    0.0100    0.0100
    0.0100    0.0100    0.0100    0.0100    0.0100    0.0100    0.0100    0.0100
    0.0100    0.0100    0.0100    0.0100    0.0100    0.0100    0.0100    0.0100
    0.0100    0.0100    0.0100    0.0100    0.0100    0.0100    0.0100    0.0100
    0.0100    0.0100    0.0100    0.0100    0.0100    0.0100    0.0100    0.0100
    0.0100    0.0100    0.0100    0.0100    0.0100    0.0100    0.0100    0.0100
    0.0100    0.0100    0.0100    0.0100    0.0100    0.0100    0.0100    0.0100
    0.0100    0.0100    0.0100    0.0100    0.0100    0.0100    0.0100    0.0100
    0.0100    0.0100    0.0100    0.0100    0.0100    0.0100    0.0100    0.0100
    0.0100    0.0100    0.0100    0.0100    0.0100    0.0100    0.0100    0.0100
    0.0100    0.0100    0.0100    0.0100    0.0100    0.0100    0.0100    0.0100
    0.0100    0.0100    0.0100    0.0100    0.0100    0.0100    0.0100    0.0100
    0.0100    0.0100    0.0100    0.0100    0.0100    0.0100    0.0100    0.0100
    0.0100    0.0100    0.0100    0.0100    0.0100    0.0100    0.0100    0.0100
    0.0100    0.0100    0.0100    0.0100    0.0100    0.0100    0.0100    0.0100
    0.0100    0.0100    0.0100    0.0100    0.0100    0.0100    0.0100    0.0100
    0.0100    0.0100    0.0100    0.0100    0.0100    0.0100    0.0100    0.0100
    0.0100    0.0100    0.0100    0.0100    0.0100    0.0100    0.0100    0.0100
    0.0100    0.0100    0.0100    0.0100    0.0100    0.0100    0.0100    0.0100
    0.0100    0.0100    0.0100    0.0100    0.0100    0.0100    0.0100    0.0100
    0.0100    0.0100    0.0100    0.0100    0.0100    0.0100    0.0100    0.0100
    0.0100    0.0100    0.0100    0.0100    0.0100    0.0100    0.0100    0.0100
    0.0100    0.0100    0.0100    0.0100    0.0100    0.0100    0.0100    0.0100
    0.0100    0.0100    0.0100    0.0100    0.0100    0.0100    0.0100    0.0100
    0.0100    0.0100    0.0100    0.0100    0.0100    0.0100    0.0100    0.0100
    0.0100    0.0100    0.0100    0.0100    0.0100    0.0100    0.0100    0.0100
    0.0100    0.0100    0.0100    0.0100    0.0100    0.0100    0.0100    0.0100
    0.0100    0.0100    0.0100    0.0100    0.0100    0.0100    0.0100    0.0100
    0.0100    0.0100    0.0100    0.0100    0.0100    0.0100    0.0100    0.0100
    0.0100    0.0100    0.0100    0.0100    0.0100    0.0100    0.0100    0.0100
    0.0100    0.0100    0.0100    0.0100    0.0100    0.0100    0.0100    0.0100
    0.0100    0.0100    0.0100    0.0100    0.0100    0.0100    0.0100    0.0100
    0.0100    0.0100    0.0100    0.0100    0.0100    0.0100    0.0100    0.0100
    0.0100    0.0100    0.0100    0.0100    0.0100    0.0100    0.0100    0.0100
    0.0100    0.0100    0.0100    0.0100    0.0100    0.0100    0.0100    0.0100
    0.0100    0.0100    0.0100    0.0100    0.0100    0.0100    0.0100    0.0100
    0.0100    0.0100    0.0100    0.0100    0.0100    0.0100    0.0100    0.0100
    0.0100    0.0100    0.0100    0.0100    0.0100    0.0100    0.0100    0.0100
    0.0100    0.0100    0.0100    0.0100    0.0100    0.0100    0.0100    0.0100
    0.0100    0.0100    0.0100    0.0100    0.0100    0.0100    0.0100    0.0100
    0.0100    0.0100    0.0100    0.0100    0.0100    0.0100    0.0100    0.0100
    0.0100    0.0100    0.0100    0.0100    0.0100    0.0100    0.0100    0.0100
    0.0100    0.0100    0.0100    0.0100    0.0100    0.0100    0.0100    0.0100
    0.0100    0.0100    0.0100    0.0100    0.0100    0.0100    0.0100    0.0100
    0.0100    0.0100    0.0100    0.0100    0.0100    0.0100    0.0100    0.0100
    0.0100    0.0100    0.0100    0.0100    0.0100    0.0100    0.0100    0.0100
    0.0100    0.0100    0.0100    0.0100    0.0100    0.0100    0.0100    0.0100
    0.0100    0.0100    0.0100    0.0100    0.0100    0.0100    0.0100    0.0100
    0.0100    0.0100    0.0100    0.0100    0.0100    0.0100    0.0100    0.0100
    0.0100    0.0100    0.0100    0.0100    0.0100    0.0100    0.0100    0.0100
    0.0100    0.0100    0.0100    0.0100    0.0100    0.0100    0.0100    0.0100
    0.0100    0.0100    0.0100    0.0100    0.0100    0.0100    0.0100    0.0100
    0.0100    0.0100    0.0100    0.0100    0.0100    0.0100    0.0100    0.0100
    0.0100    0.0100    0.0100    0.0100    0.0100    0.0100    0.0100    0.0100
    0.0100    0.0100    0.0100    0.0100    0.0100    0.0100    0.0100    0.0100
    0.0100    0.0100    0.0100    0.0100    0.0100    0.0100    0.0100    0.0100
    0.0100    0.0100    0.0100    0.0100    0.0100    0.0100    0.0100    0.0100
    0.0100    0.0100    0.0100    0.0100    0.0100    0.0100    0.0100    0.0100
    0.0100    0.0100    0.0100    0.0100    0.0100    0.0100    0.0100    0.0100
    0.0100    0.0100    0.0100    0.0100    0.0100    0.0100    0.0100    0.0100
    0.0100    0.0100    0.0100    0.0100    0.0100    0.0100    0.0100    0.0100
    0.0100    0.0100    0.0100    0.0100    0.0100    0.0100    0.0100    0.0100
    0.0100    0.0100    0.0100    0.0100    0.0100    0.0100    0.0100    0.0100
    0.0100    0.0100    0.0100    0.0100    0.0100    0.0100    0.0100    0.0100
    0.0100    0.0100    0.0100    0.0100    0.0100    0.0100    0.0100    0.0100
    0.0100    0.0100    0.0100    0.0100    0.0100    0.0100    0.0100    0.0100
    0.0100    0.0100
   </PP_RAB>
 </PP_MESH>
  <PP_LOCAL type="real"  size=" 602" columns="4">
   -3.7356254019E+01   -3.7409603788E+01   -3.7559895662E+01   -3.8036579268E+01
   -3.9069104232E+01   -4.0080320993E+01   -3.9616968468E+01   -3.8125810352E+01
   -3.7170341097E+01   -3.6903452295E+01   -3.6907692422E+01   -3.6953126656E+01
   -3.6977622004E+01   -3.6976973313E+01   -3.6958324593E+01   -3.6928177505E+01
   -3.6890858193E+01   -3.6849106558E+01   -3.6804740158E+01   -3.6759078931E+01
   -3.6713175580E+01   -3.6667927284E+01   -3.6624120669E+01   -3.6582439402E+01
   -3.6543450669E+01   -3.6507579685E+01   -3.6475078354E+01   -3.6445992896E+01
   -3.6420135204E+01   -3.6397062147E+01   -3.6376067344E+01   -3.6356188986E+01
   -3.6336236238E+01   -3.6314834653E+01   -3.6290489152E+01   -3.6261661426E+01
   -3.6226855697E+01   -3.6184705336E+01   -3.6134053650E+01   -3.6074022006E+01
   -3.6004056806E+01   -3.5923954251E+01   -3.5833859778E+01   -3.5734243277E+01
   -3.5625853330E+01   -3.5509655638E+01   -3.5386762132E+01   -3.5258357785E+01
   -3.5125632020E+01   -3.4989719960E+01   -3.4851655941E+01   -3.4712344351E+01
   -3.4572545732E+01   -3.4432870354E+01   -3.4293790945E+01   -3.4155654440E+01
   -3.4018700953E+01   -3.3883084035E+01   -3.3748887976E+01   -3.3616145537E+01
   -3.3484851309E+01   -3.3354972696E+01   -3.3226458995E+01   -3.3099246401E+01
   -3.2973262701E+01   -3.2848429285E+01   -3.2724661814E+01   -3.2601870381E+01
   -3.2479958652E+01   -3.2358822419E+01   -3.2238347922E+01   -3.2118410446E+01
   -3.1998872835E+01   -3.1879584527E+01   -3.1760380950E+01   -3.1641083718E+01
   -3.1521502136E+01   -3.1401435260E+01   -3.1280675087E+01   -3.1159010681E+01
   -3.1036233108E+01   -3.0912140950E+01   -3.0786546093E+01   -3.0659279448E+01
   -3.0530196217E+01   -3.0399180378E+01   -3.0266148051E+01   -3.0131049559E+01
   -2.9993870051E+01   -2.9854628689E+01   -2.9713376522E+01   -2.9570193237E+01
   -2.9425183073E+01   -2.9278470192E+01   -2.9130193822E+01   -2.8980503466E+01
   -2.8829554391E+01   -2.8677503758E+01   -2.8524506915E+01   -2.8370714492E+01
   -2.8216270413E+01   -2.8061310389E+01   -2.7905960985E+01   -2.7750339437E+01
   -2.7594553048E+01   -2.7438699058E+01   -2.7282866103E+01   -2.7127134469E+01
   -2.6971577094E+01   -2.6816259576E+01   -2.6661240982E+01   -2.6506575339E+01
   -2.6352312043E+01   -2.6198496379E+01   -2.6045169359E+01   -2.5892369305E+01
   -2.5740131974E+01   -2.5588490538E+01   -2.5437475781E+01   -2.5287116830E+01
   -2.5137441367E+01   -2.4988474842E+01   -2.4840241436E+01   -2.4692764153E+01
   -2.4546064227E+01   -2.4400161429E+01   -2.4255074528E+01   -2.4110820636E+01
   -2.3967415268E+01   -2.3824873065E+01   -2.3683206879E+01   -2.3542428040E+01
   -2.3402547162E+01   -2.3263572779E+01   -2.3125512351E+01   -2.2988372651E+01
   -2.2852158301E+01   -2.2716873604E+01   -2.2582521658E+01   -2.2449104449E+01
   -2.2316623766E+01   -2.2185080192E+01   -2.2054474267E+01   -2.1924806044E+01
   -2.1796075469E+01   -2.1668282387E+01   -2.1541426890E+01   -2.1415509161E+01
   -2.1290529801E+01   -2.1166489913E+01   -2.1043390802E+01   -2.0921234827E+01
   -2.0800024130E+01   -2.0679762228E+01   -2.0560452331E+01   -2.0442098592E+01
   -2.0324705019E+01   -2.0208276015E+01   -2.0092815666E+01   -1.9978328142E+01
   -1.9864816634E+01   -1.9752284471E+01   -1.9640732883E+01   -1.9530163656E+01
   -1.9420575073E+01   -1.9311966623E+01   -1.9204332915E+01   -1.9097670429E+01
   -1.8991969780E+01   -1.8887223871E+01   -1.8783419491E+01   -1.8680545674E+01
   -1.8578586025E+01   -1.8477525825E+01   -1.8377346473E+01   -1.8278030121E+01
   -1.8179557046E+01   -1.8081907404E+01   -1.7985061299E+01   -1.7888998333E+01
   -1.7793699176E+01   -1.7699144188E+01   -1.7605315431E+01   -1.7512198296E+01
   -1.7419776842E+01   -1.7328044663E+01   -1.7236989221E+01   -1.7146610229E+01
   -1.7056901213E+01   -1.6967864060E+01   -1.6879498800E+01   -1.6791808298E+01
   -1.6704797187E+01   -1.6618469377E+01   -1.6532831292E+01   -1.6447888353E+01
   -1.6363646365E+01   -1.6280111588E+01   -1.6197288790E+01   -1.6115182874E+01
   -1.6033798532E+01   -1.5953137645E+01   -1.5873204765E+01   -1.5793999368E+01
   -1.5715523139E+01   -1.5637775697E+01   -1.5560754793E+01   -1.5484460330E+01
   -1.5408887362E+01   -1.5334033470E+01   -1.5259894007E+01   -1.5186463443E+01
   -1.5113737546E+01   -1.5041709041E+01   -1.4970372181E+01   -1.4899720112E+01
   -1.4829745335E+01   -1.4760441223E+01   -1.4691799636E+01   -1.4623813048E+01
   -1.4556473748E+01   -1.4489773656E+01   -1.4423704915E+01   -1.4358259520E+01
   -1.4293429462E+01   -1.4229206718E+01   -1.4165583439E+01   -1.4102551631E+01
   -1.4040103435E+01   -1.3978231193E+01   -1.3916926977E+01   -1.3856183281E+01
   -1.3795992611E+01   -1.3736347173E+01   -1.3677239851E+01   -1.3618663254E+01
   -1.3560609931E+01   -1.3503072957E+01   -1.3446045102E+01   -1.3389519256E+01
   -1.3333488644E+01   -1.3277946209E+01   -1.3222885130E+01   -1.3168298776E+01
   -1.3114180254E+01   -1.3060522986E+01   -1.3007320481E+01   -1.2954565969E+01
   -1.2902253127E+01   -1.2850375649E+01   -1.2798926820E+01   -1.2747900721E+01
   -1.2697291386E+01   -1.2647092318E+01   -1.2597298042E+01   -1.2547903010E+01
   -1.2498901163E+01   -1.2450287322E+01   -1.2402056284E+01   -1.2354202319E+01
   -1.2306720559E+01   -1.2259606240E+01   -1.2212854079E+01   -1.2166459427E+01
   -1.2120417921E+01   -1.2074724708E+01   -1.2029375297E+01   -1.1984365752E+01
   -1.1939691674E+01   -1.1895348676E+01   -1.1851333234E+01   -1.1807641402E+01
   -1.1764268857E+01   -1.1721212460E+01   -1.1678468609E+01   -1.1636033319E+01
   -1.1593903503E+01   -1.1552075932E+01   -1.1510547069E+01   -1.1469313729E+01
   -1.1428373025E+01   -1.1387721803E+01   -1.1347356820E+01   -1.1307275421E+01
   -1.1267474698E+01   -1.1227951519E+01   -1.1188703270E+01   -1.1149727247E+01
   -1.1111020581E+01   -1.1072580529E+01   -1.1034404620E+01   -1.0996490234E+01
   -1.0958834535E+01   -1.0921435221E+01   -1.0884289797E+01   -1.0847395666E+01
   -1.0810750361E+01   -1.0774351589E+01   -1.0738196949E+01   -1.0702283881E+01
   -1.0666610211E+01   -1.0631173636E+01   -1.0595971787E+01   -1.0561002330E+01
   -1.0526263125E+01   -1.0491751930E+01   -1.0457466400E+01   -1.0423404409E+01
   -1.0389563818E+01   -1.0355942437E+01   -1.0322537959E+01   -1.0289348436E+01
   -1.0256371771E+01   -1.0223605765E+01   -1.0191048292E+01   -1.0158697548E+01
   -1.0126551555E+01   -1.0094608165E+01   -1.0062865537E+01   -1.0031321918E+01
   -9.9999754502E+00   -9.9688241374E+00   -9.9378662853E+00   -9.9071001388E+00
   -9.8765239112E+00   -9.8461356108E+00   -9.8159337382E+00   -9.7859166012E+00
   -9.7560824855E+00   -9.7264295494E+00   -9.6969563415E+00   -9.6676612419E+00
   -9.6385426001E+00   -9.6095986787E+00   -9.5808280922E+00   -9.5522292967E+00
   -9.5238007146E+00   -9.4955406950E+00   -9.4674479167E+00   -9.4395209074E+00
   -9.4117581675E+00   -9.3841581073E+00   -9.3567194758E+00   -9.3294408690E+00
   -9.3023208709E+00   -9.2753579309E+00   -9.2485508721E+00   -9.2218983554E+00
   -9.1953990422E+00   -9.1690514336E+00   -9.1428543972E+00   -9.1168066675E+00
   -9.0909069683E+00   -9.0651538942E+00   -9.0395463002E+00   -9.0140830107E+00
   -8.9887628084E+00   -8.9635843864E+00   -8.9385465682E+00   -8.9136482718E+00
   -8.8888883366E+00   -8.8642655595E+00   -8.8397787156E+00   -8.8154268183E+00
   -8.7912087611E+00   -8.7671234374E+00   -8.7431695963E+00   -8.7193463108E+00
   -8.6956525376E+00   -8.6720872217E+00   -8.6486492224E+00   -8.6253375252E+00
   -8.6021511952E+00   -8.5790892266E+00   -8.5561505958E+00   -8.5333341872E+00
   -8.5106391733E+00   -8.4880645953E+00   -8.4656094939E+00   -8.4432728166E+00
   -8.4210536688E+00   -8.3989511921E+00   -8.3769644721E+00   -8.3550925815E+00
   -8.3333344920E+00   -8.3116894613E+00   -8.2901566174E+00   -8.2687350885E+00
   -8.2474239324E+00   -8.2262222941E+00   -8.2051294150E+00   -8.1841444636E+00
   -8.1632666088E+00   -8.1424949040E+00   -8.1218286427E+00   -8.1012670546E+00
   -8.0808093471E+00   -8.0604547090E+00   -8.0402022557E+00   -8.0200513465E+00
   -8.0000012258E+00   -7.9800511379E+00   -7.9602002771E+00   -7.9404478673E+00
   -7.9207932710E+00   -7.9012357677E+00   -7.8817746368E+00   -7.8624090860E+00
   -7.8431384265E+00   -7.8239620296E+00   -7.8048792083E+00   -7.7858892757E+00
   -7.7669914596E+00   -7.7481851381E+00   -7.7294696976E+00   -7.7108444831E+00
   -7.6923088398E+00   -7.6738620218E+00   -7.6555034546E+00   -7.6372325463E+00
   -7.6190486725E+00   -7.6009512088E+00   -7.5829394414E+00   -7.5650128252E+00
   -7.5471707960E+00   -7.5294127585E+00   -7.5117381175E+00   -7.4941461963E+00
   -7.4766364626E+00   -7.4592083857E+00   -7.4418613979E+00   -7.4245949317E+00
   -7.4074083531E+00   -7.3903011263E+00   -7.3732727593E+00   -7.3563227112E+00
   -7.3394504406E+00   -7.3226553614E+00   -7.3059369194E+00   -7.2892946663E+00
   -7.2727280861E+00   -7.2562366629E+00   -7.2398198632E+00   -7.2234771009E+00
   -7.2072079751E+00   -7.1910119940E+00   -7.1748886657E+00   -7.1588374982E+00
   -7.1428579089E+00   -7.1269495002E+00   -7.1111118188E+00   -7.0953443956E+00
   -7.0796467617E+00   -7.0640183965E+00   -7.0484588393E+00   -7.0329676966E+00
   -7.0175445212E+00   -7.0021888661E+00   -6.9869002778E+00   -6.9716782219E+00
   -6.9565223666E+00   -6.9414322854E+00   -6.9264075521E+00   -6.9114477404E+00
   -6.8965523673E+00   -6.8817210304E+00   -6.8669533668E+00   -6.8522489702E+00
   -6.8376074340E+00   -6.8230283516E+00   -6.8085112213E+00   -6.7940557509E+00
   -6.7796615528E+00   -6.7653282395E+00   -6.7510554235E+00   -6.7368426812E+00
   -6.7226896082E+00   -6.7085958945E+00   -6.6945611706E+00   -6.6805850671E+00
   -6.6666672146E+00   -6.6528071803E+00   -6.6390046395E+00   -6.6252592698E+00
   -6.6115707190E+00   -6.5979386350E+00   -6.5843626655E+00   -6.5708423759E+00
   -6.5573775034E+00   -6.5439677197E+00   -6.5306126891E+00   -6.5173120758E+00
   -6.5040655365E+00   -6.4908726636E+00   -6.4777332171E+00   -6.4646468769E+00
   -6.4516133227E+00   -6.4386322345E+00   -6.4257032762E+00   -6.4128260755E+00
   -6.4000003974E+00   -6.3872259368E+00   -6.3745023883E+00   -6.3618294468E+00
   -6.3492067893E+00   -6.3366340642E+00   -6.3241110471E+00   -6.3116374469E+00
   -6.2992129727E+00   -6.2868373335E+00   -6.2745102246E+00   -6.2622313019E+00
   -6.2500003564E+00   -6.2378171107E+00   -6.2256812873E+00   -6.2135926088E+00
   -6.2015507942E+00   -6.1895554937E+00   -6.1776065188E+00   -6.1657036050E+00
   -6.1538464878E+00   -6.1420349026E+00   -6.1302685849E+00   -6.1185472034E+00
   -6.1068705587E+00   -6.0952384104E+00   -6.0836505063E+00   -6.0721065941E+00
   -6.0606064217E+00   -6.0491496916E+00   -6.0377361714E+00   -6.0263656526E+00
   -6.0150378948E+00   -6.0037526575E+00   -5.9925097003E+00   -5.9813087642E+00
   -5.9701495732E+00   -5.9590319545E+00   -5.9479556789E+00   -5.9369205172E+00
   -5.9259262401E+00   -5.9149726183E+00   -5.9040593621E+00   -5.8931862985E+00
   -5.8823532217E+00   -5.8715599132E+00   -5.8608061543E+00   -5.8500917265E+00
   -5.8394163871E+00   -5.8287798971E+00   -5.8181820958E+00   -5.8076227747E+00
   -5.7971017256E+00   -5.7866187400E+00   -5.7761736094E+00   -5.7657660724E+00
   -5.7553959641E+00   -5.7450631026E+00   -5.7347672891E+00   -5.7245083251E+00
   -5.7142860119E+00   -5.7041001431E+00   -5.6939504683E+00   -5.6838368582E+00
   -5.6737591235E+00   -5.6637170746E+00   -5.6537105223E+00   -5.6437392770E+00
   -5.6338031238E+00   -5.6239018605E+00   -5.6140353480E+00   -5.6042034055E+00
   -5.5944058527E+00   -5.5846425088E+00   -5.5749131932E+00   -5.5652176882E+00
   -5.5555558266E+00   -5.5459274645E+00   -5.5363324298E+00   -5.5267705502E+00
   -5.5172416536E+00   -5.5077455678E+00   -5.4982820776E+00   -5.4888510382E+00
   -5.4794523063E+00   -5.4700857176E+00   -5.4607511081E+00   -5.4514483137E+00
   -5.4421771700E+00   -5.4329374695E+00   -5.4237290778E+00   -5.4145518573E+00
   -5.4054056514E+00   -5.3962903036E+00   -5.3872056574E+00   -5.3781515563E+00
   -5.3691278048E+00   -5.3601342679E+00   -5.3511708183E+00   -5.3422373068E+00
   -5.3333335842E+00   -5.3244595012E+00
  </PP_LOCAL>
 <PP_NONLOCAL>
   <PP_BETA.1
       type="real"
       size=" 602"
       columns="4"
       index="1"
       angular_momentum="0"
       cutoff_radius_index=" 316"
       cutoff_radius="    3.1500000000E+00" >
    0.0000000000E+00    1.9525838580E-02    3.8952580606E-02    5.8181546271E-02
    7.7114887704E-02    9.5656001039E-02    1.1370993384E-01    1.3118378630E-01
    1.4798710481E-01    1.6403226628E-01    1.7923485188E-01    1.9351400871E-01
    2.0679279809E-01    2.1899852903E-01    2.3006307579E-01    2.3992317807E-01
    2.4852072288E-01    2.5580300684E-01    2.6172297795E-01    2.6623945596E-01
    2.6931733003E-01    2.7092773364E-01    2.7104819512E-01    2.6966276393E-01
    2.6676211154E-01    2.6234360696E-01    2.5641136614E-01    2.4897627522E-01
    2.4005598702E-01    2.2967489148E-01    2.1786405921E-01    2.0466115874E-01
    1.9011034746E-01    1.7426213713E-01    1.5717323228E-01    1.3890634731E-01
    1.1952999257E-01    9.9118244903E-02    7.7750489724E-02    5.5511139844E-02
    3.2489339045E-02    8.7786411403E-03   -1.5523328907E-02   -4.0315231582E-02
   -6.5492385905E-02   -9.0947157683E-02   -1.1656936151E-01   -1.4224667486E-01
   -1.6786505737E-01   -1.9330918642E-01   -2.1846291904E-01   -2.4320971393E-01
   -2.6743305349E-01   -2.9101699962E-01   -3.1384652808E-01   -3.3580804997E-01
   -3.5678986332E-01   -3.7668253942E-01   -3.9537945427E-01   -4.1277712495E-01
   -4.2877568326E-01   -4.4327932410E-01   -4.5619650967E-01   -4.6744067619E-01
   -4.7693031089E-01   -4.8458932795E-01   -4.9034763185E-01   -4.9414117257E-01