<UPF version="2.0.1">
  <PP_INFO>

 I_ONCV_PBE-1.0.upf

 This pseudopotential file has been produced using the code
 ONCVPSP  (Optimized Norm-Conservinng Vanderbilt PSeudopotential)
 scalar-relativistic version 2.1.1, 03/26/2014 by D. R. Hamann
 The code is available through a link at URL www.mat-simresearch.com.
 Documentation with the package provides a full discription of the
 input data below.


 While it is not required under the terms of the GNU GPL, it is
 suggested that you cite D. R. Hamann, Phys. Rev. B 88, 085117 (2013)
 in any publication using these pseudopotentials.


 Copyright 2015 The Regents of the University of California
 
 This work is licensed under the Creative Commons Attribution-ShareAlike 
 4.0 International License. To view a copy of this license, visit 
 http://creativecommons.org/licenses/by-sa/4.0/ or send a letter to 
 Creative Commons, PO Box 1866, Mountain View, CA 94042, USA.
 
 This pseudopotential is part of the Schlipf-Gygi norm-conserving 
 pseudopotential library. Its construction parameters were tuned to 
 reproduce materials of a training set with very high accuracy and 
 should be suitable as a general purpose pseudopotential to treat a 
 variety of different compounds. For details of the construction and 
 testing of the pseudopotential please refer to:
 
 [insert reference to paper here]
 
 We kindly ask that you include this reference in all publications 
 associated to this pseudopotential.


    <PP_INPUTFILE>
# ATOM AND REFERENCE CONFIGURATION
# atsym  z    nc    nv    iexc   psfile
  I 53.00     8     3     4      upf
#
#   n    l    f        energy (Ha)
    1    0    2.00
    2    0    2.00
    2    1    6.00
    3    0    2.00
    3    1    6.00
    3    2   10.00
    4    0    2.00
    4    1    6.00
    4    2   10.00
    5    0    2.00
    5    1    5.00
#
# PSEUDOPOTENTIAL AND OPTIMIZATION
# lmax
    2
#
#   l,   rc,     ep,   ncon, nbas, qcut
    0   3.21723  -0.63971    5    8   4.12278
    1   3.10413  -0.26040    5    8   4.43529
    2   2.72241  -1.84771    5    8   7.02173
#
# LOCAL POTENTIAL
# lloc, lpopt,  rc(5),   dvloc0
    4    5   1.63002      0.00000
#
# VANDERBILT-KLEINMAN-BYLANDER PROJECTORs
# l, nproj, debl
    0    2   1.35796
    1    2   1.07222
    2    2   1.96622
#
# MODEL CORE CHARGE
# icmod, fcfact
    0   0.00000
#
# LOG DERIVATIVE ANALYSIS
# epsh1, epsh2, depsh
   -5.00    3.00    0.02
#
# OUTPUT GRID
# rlmax, drl
    6.00    0.01
#
# TEST CONFIGURATIONS
# ncnf
    0
# nvcnf
#   n    l    f
    </PP_INPUTFILE>
  </PP_INFO>
  <!--                               -->
  <!-- END OF HUMAN READABLE SECTION -->
  <!--                               -->
    <PP_HEADER
       generated="Generated using ONCVPSP code by D. R. Hamann"
       author="Martin Schlipf and Francois Gygi"
       date="150105"
       comment=""
       element="I "
       pseudo_type="NC"
       relativistic="scalar"
       is_ultrasoft="F"
       is_paw="F"
       is_coulomb="F"
       has_so="F"
       has_wfc="F"
       has_gipaw="F"
       core_correction="F"
       functional="PBE"
       z_valence="   17.00"
       total_psenergy="  -1.01225740163E+02"
       rho_cutoff="   6.01000000000E+00"
       l_max="2"
       l_local="-1"
       mesh_size="   602"
       number_of_wfc="0"
       number_of_proj="6"/>
 <PP_MESH>
   <PP_R type="real"  size=" 602" columns="8">
    0.0000    0.0100    0.0200    0.0300    0.0400    0.0500    0.0600    0.0700
    0.0800    0.0900    0.1000    0.1100    0.1200    0.1300    0.1400    0.1500
    0.1600    0.1700    0.1800    0.1900    0.2000    0.2100    0.2200    0.2300
    0.2400    0.2500    0.2600    0.2700    0.2800    0.2900    0.3000    0.3100
    0.3200    0.3300    0.3400    0.3500    0.3600    0.3700    0.3800    0.3900
    0.4000    0.4100    0.4200    0.4300    0.4400    0.4500    0.4600    0.4700
    0.4800    0.4900    0.5000    0.5100    0.5200    0.5300    0.5400    0.5500
    0.5600    0.5700    0.5800    0.5900    0.6000    0.6100    0.6200    0.6300
    0.6400    0.6500    0.6600    0.6700    0.6800    0.6900    0.7000    0.7100
    0.7200    0.7300    0.7400    0.7500    0.7600    0.7700    0.7800    0.7900
    0.8000    0.8100    0.8200    0.8300    0.8400    0.8500    0.8600    0.8700
    0.8800    0.8900    0.9000    0.9100    0.9200    0.9300    0.9400    0.9500
    0.9600    0.9700    0.9800    0.9900    1.0000    1.0100    1.0200    1.0300
    1.0400    1.0500    1.0600    1.0700    1.0800    1.0900    1.1000    1.1100
    1.1200    1.1300    1.1400    1.1500    1.1600    1.1700    1.1800    1.1900
    1.2000    1.2100    1.2200    1.2300    1.2400    1.2500    1.2600    1.2700
    1.2800    1.2900    1.3000    1.3100    1.3200    1.3300    1.3400    1.3500
    1.3600    1.3700    1.3800    1.3900    1.4000    1.4100    1.4200    1.4300
    1.4400    1.4500    1.4600    1.4700    1.4800    1.4900    1.5000    1.5100
    1.5200    1.5300    1.5400    1.5500    1.5600    1.5700    1.5800    1.5900
    1.6000    1.6100    1.6200    1.6300    1.6400    1.6500    1.6600    1.6700
    1.6800    1.6900    1.7000    1.7100    1.7200    1.7300    1.7400    1.7500
    1.7600    1.7700    1.7800    1.7900    1.8000    1.8100    1.8200    1.8300
    1.8400    1.8500    1.8600    1.8700    1.8800    1.8900    1.9000    1.9100
    1.9200    1.9300    1.9400    1.9500    1.9600    1.9700    1.9800    1.9900
    2.0000    2.0100    2.0200    2.0300    2.0400    2.0500    2.0600    2.0700
    2.0800    2.0900    2.1000    2.1100    2.1200    2.1300    2.1400    2.1500
    2.1600    2.1700    2.1800    2.1900    2.2000    2.2100    2.2200    2.2300
    2.2400    2.2500    2.2600    2.2700    2.2800    2.2900    2.3000    2.3100
    2.3200    2.3300    2.3400    2.3500    2.3600    2.3700    2.3800    2.3900
    2.4000    2.4100    2.4200    2.4300    2.4400    2.4500    2.4600    2.4700
    2.4800    2.4900    2.5000    2.5100    2.5200    2.5300    2.5400    2.5500
    2.5600    2.5700    2.5800    2.5900    2.6000    2.6100    2.6200    2.6300
    2.6400    2.6500    2.6600    2.6700    2.6800    2.6900    2.7000    2.7100
    2.7200    2.7300    2.7400    2.7500    2.7600    2.7700    2.7800    2.7900
    2.8000    2.8100    2.8200    2.8300    2.8400    2.8500    2.8600    2.8700
    2.8800    2.8900    2.9000    2.9100    2.9200    2.9300    2.9400    2.9500
    2.9600    2.9700    2.9800    2.9900    3.0000    3.0100    3.0200    3.0300
    3.0400    3.0500    3.0600    3.0700    3.0800    3.0900    3.1000    3.1100
    3.1200    3.1300    3.1400    3.1500    3.1600    3.1700    3.1800    3.1900
    3.2000    3.2100    3.2200    3.2300    3.2400    3.2500    3.2600    3.2700
    3.2800    3.2900    3.3000    3.3100    3.3200    3.3300    3.3400    3.3500
    3.3600    3.3700    3.3800    3.3900    3.4000    3.4100    3.4200    3.4300
    3.4400    3.4500    3.4600    3.4700    3.4800    3.4900    3.5000    3.5100
    3.5200    3.5300    3.5400    3.5500    3.5600    3.5700    3.5800    3.5900
    3.6000    3.6100    3.6200    3.6300    3.6400    3.6500    3.6600    3.6700
    3.6800    3.6900    3.7000    3.7100    3.7200    3.7300    3.7400    3.7500
    3.7600    3.7700    3.7800    3.7900    3.8000    3.8100    3.8200    3.8300
    3.8400    3.8500    3.8600    3.8700    3.8800    3.8900    3.9000    3.9100
    3.9200    3.9300    3.9400    3.9500    3.9600    3.9700    3.9800    3.9900
    4.0000    4.0100    4.0200    4.0300    4.0400    4.0500    4.0600    4.0700
    4.0800    4.0900    4.1000    4.1100    4.1200    4.1300    4.1400    4.1500
    4.1600    4.1700    4.1800    4.1900    4.2000    4.2100    4.2200    4.2300
    4.2400    4.2500    4.2600    4.2700    4.2800    4.2900    4.3000    4.3100
    4.3200    4.3300    4.3400    4.3500    4.3600    4.3700    4.3800    4.3900
    4.4000    4.4100    4.4200    4.4300    4.4400    4.4500    4.4600    4.4700
    4.4800    4.4900    4.5000    4.5100    4.5200    4.5300    4.5400    4.5500
    4.5600    4.5700    4.5800    4.5900    4.6000    4.6100    4.6200    4.6300
    4.6400    4.6500    4.6600    4.6700    4.6800    4.6900    4.7000    4.7100
    4.7200    4.7300    4.7400    4.7500    4.7600    4.7700    4.7800    4.7900
    4.8000    4.8100    4.8200    4.8300    4.8400    4.8500    4.8600    4.8700
    4.8800    4.8900    4.9000    4.9100    4.9200    4.9300    4.9400    4.9500
    4.9600    4.9700    4.9800    4.9900    5.0000    5.0100    5.0200    5.0300
    5.0400    5.0500    5.0600    5.0700    5.0800    5.0900    5.1000    5.1100
    5.1200    5.1300    5.1400    5.1500    5.1600    5.1700    5.1800    5.1900
    5.2000    5.2100    5.2200    5.2300    5.2400    5.2500    5.2600    5.2700
    5.2800    5.2900    5.3000    5.3100    5.3200    5.3300    5.3400    5.3500
    5.3600    5.3700    5.3800    5.3900    5.4000    5.4100    5.4200    5.4300
    5.4400    5.4500    5.4600    5.4700    5.4800    5.4900    5.5000    5.5100
    5.5200    5.5300    5.5400    5.5500    5.5600    5.5700    5.5800    5.5900
    5.6000    5.6100    5.6200    5.6300    5.6400    5.6500    5.6600    5.6700
    5.6800    5.6900    5.7000    5.7100    5.7200    5.7300    5.7400    5.7500
    5.7600    5.7700    5.7800    5.7900    5.8000    5.8100    5.8200    5.8300
    5.8400    5.8500    5.8600    5.8700    5.8800    5.8900    5.9000    5.9100
    5.9200    5.9300    5.9400    5.9500    5.9600    5.9700    5.9800    5.9900
    6.0000    6.0100
   </PP_R>
   <PP_RAB type="real"  size=" 602" columns="8">
    0.0100    0.0100    0.0100    0.0100    0.0100    0.0100    0.0100    0.0100
    0.0100    0.0100    0.0100    0.0100    0.0100    0.0100    0.0100    0.0100
    0.0100    0.0100    0.0100    0.0100    0.0100    0.0100    0.0100    0.0100
    0.0100    0.0100    0.0100    0.0100    0.0100    0.0100    0.0100    0.0100
    0.0100    0.0100    0.0100    0.0100    0.0100    0.0100    0.0100    0.0100
    0.0100    0.0100    0.0100    0.0100    0.0100    0.0100    0.0100    0.0100
    0.0100    0.0100    0.0100    0.0100    0.0100    0.0100    0.0100    0.0100
    0.0100    0.0100    0.0100    0.0100    0.0100    0.0100    0.0100    0.0100
    0.0100    0.0100    0.0100    0.0100    0.0100    0.0100    0.0100    0.0100
    0.0100    0.0100    0.0100    0.0100    0.0100    0.0100    0.0100    0.0100
    0.0100    0.0100    0.0100    0.0100    0.0100    0.0100    0.0100    0.0100
    0.0100    0.0100    0.0100    0.0100    0.0100    0.0100    0.0100    0.0100
    0.0100    0.0100    0.0100    0.0100    0.0100    0.0100    0.0100    0.0100
    0.0100    0.0100    0.0100    0.0100    0.0100    0.0100    0.0100    0.0100
    0.0100    0.0100    0.0100    0.0100    0.0100    0.0100    0.0100    0.0100
    0.0100    0.0100    0.0100    0.0100    0.0100    0.0100    0.0100    0.0100
    0.0100    0.0100    0.0100    0.0100    0.0100    0.0100    0.0100    0.0100
    0.0100    0.0100    0.0100    0.0100    0.0100    0.0100    0.0100    0.0100
    0.0100    0.0100    0.0100    0.0100    0.0100    0.0100    0.0100    0.0100
    0.0100    0.0100    0.0100    0.0100    0.0100    0.0100    0.0100    0.0100
    0.0100    0.0100    0.0100    0.0100    0.0100    0.0100    0.0100    0.0100
    0.0100    0.0100    0.0100    0.0100    0.0100    0.0100    0.0100    0.0100
    0.0100    0.0100    0.0100    0.0100    0.0100    0.0100    0.0100    0.0100
    0.0100    0.0100    0.0100    0.0100    0.0100    0.0100    0.0100    0.0100
    0.0100    0.0100    0.0100    0.0100    0.0100    0.0100    0.0100    0.0100
    0.0100    0.0100    0.0100    0.0100    0.0100    0.0100    0.0100    0.0100
    0.0100    0.0100    0.0100    0.0100    0.0100    0.0100    0.0100    0.0100
    0.0100    0.0100    0.0100    0.0100    0.0100    0.0100    0.0100    0.0100
    0.0100    0.0100    0.0100    0.0100    0.0100    0.0100    0.0100    0.0100
    0.0100    0.0100    0.0100    0.0100    0.0100    0.0100    0.0100    0.0100
    0.0100    0.0100    0.0100    0.0100    0.0100    0.0100    0.0100    0.0100
    0.0100    0.0100    0.0100    0.0100    0.0100    0.0100    0.0100    0.0100
    0.0100    0.0100    0.0100    0.0100    0.0100    0.0100    0.0100    0.0100
    0.0100    0.0100    0.0100    0.0100    0.0100    0.0100    0.0100    0.0100
    0.0100    0.0100    0.0100    0.0100    0.0100    0.0100    0.0100    0.0100
    0.0100    0.0100    0.0100    0.0100    0.0100    0.0100    0.0100    0.0100
    0.0100    0.0100    0.0100    0.0100    0.0100    0.0100    0.0100    0.0100
    0.0100    0.0100    0.0100    0.0100    0.0100    0.0100    0.0100    0.0100
    0.0100    0.0100    0.0100    0.0100    0.0100    0.0100    0.0100    0.0100
    0.0100    0.0100    0.0100    0.0100    0.0100    0.0100    0.0100    0.0100
    0.0100    0.0100    0.0100    0.0100    0.0100    0.0100    0.0100    0.0100
    0.0100    0.0100    0.0100    0.0100    0.0100    0.0100    0.0100    0.0100
    0.0100    0.0100    0.0100    0.0100    0.0100    0.0100    0.0100    0.0100
    0.0100    0.0100    0.0100    0.0100    0.0100    0.0100    0.0100    0.0100
    0.0100    0.0100    0.0100    0.0100    0.0100    0.0100    0.0100    0.0100
    0.0100    0.0100    0.0100    0.0100    0.0100    0.0100    0.0100    0.0100
    0.0100    0.0100    0.0100    0.0100    0.0100    0.0100    0.0100    0.0100
    0.0100    0.0100    0.0100    0.0100    0.0100    0.0100    0.0100    0.0100
    0.0100    0.0100    0.0100    0.0100    0.0100    0.0100    0.0100    0.0100
    0.0100    0.0100    0.0100    0.0100    0.0100    0.0100    0.0100    0.0100
    0.0100    0.0100    0.0100    0.0100    0.0100    0.0100    0.0100    0.0100
    0.0100    0.0100    0.0100    0.0100    0.0100    0.0100    0.0100    0.0100
    0.0100    0.0100    0.0100    0.0100    0.0100    0.0100    0.0100    0.0100
    0.0100    0.0100    0.0100    0.0100    0.0100    0.0100    0.0100    0.0100
    0.0100    0.0100    0.0100    0.0100    0.0100    0.0100    0.0100    0.0100
    0.0100    0.0100    0.0100    0.0100    0.0100    0.0100    0.0100    0.0100
    0.0100    0.0100    0.0100    0.0100    0.0100    0.0100    0.0100    0.0100
    0.0100    0.0100    0.0100    0.0100    0.0100    0.0100    0.0100    0.0100
    0.0100    0.0100    0.0100    0.0100    0.0100    0.0100    0.0100    0.0100
    0.0100    0.0100    0.0100    0.0100    0.0100    0.0100    0.0100    0.0100
    0.0100    0.0100    0.0100    0.0100    0.0100    0.0100    0.0100    0.0100
    0.0100    0.0100    0.0100    0.0100    0.0100    0.0100    0.0100    0.0100
    0.0100    0.0100    0.0100    0.0100    0.0100    0.0100    0.0100    0.0100
    0.0100    0.0100    0.0100    0.0100    0.0100    0.0100    0.0100    0.0100
    0.0100    0.0100    0.0100    0.0100    0.0100    0.0100    0.0100    0.0100
    0.0100    0.0100    0.0100    0.0100    0.0100    0.0100    0.0100    0.0100
    0.0100    0.0100    0.0100    0.0100    0.0100    0.0100    0.0100    0.0100
    0.0100    0.0100    0.0100    0.0100    0.0100    0.0100    0.0100    0.0100
    0.0100    0.0100    0.0100    0.0100    0.0100    0.0100    0.0100    0.0100
    0.0100    0.0100    0.0100    0.0100    0.0100    0.0100    0.0100    0.0100
    0.0100    0.0100    0.0100    0.0100    0.0100    0.0100    0.0100    0.0100
    0.0100    0.0100    0.0100    0.0100    0.0100    0.0100    0.0100    0.0100
    0.0100    0.0100    0.0100    0.0100    0.0100    0.0100    0.0100    0.0100
    0.0100    0.0100    0.0100    0.0100    0.0100    0.0100    0.0100    0.0100
    0.0100    0.0100    0.0100    0.0100    0.0100    0.0100    0.0100    0.0100
    0.0100    0.0100
   </PP_RAB>
 </PP_MESH>
  <PP_LOCAL type="real"  size=" 602" columns="4">
   -4.3596812722E+01   -4.3623202666E+01   -4.3631976930E+01   -4.3666028969E+01
   -4.3768252235E+01   -4.4011837021E+01   -4.4458570808E+01   -4.5036888091E+01
   -4.5452631285E+01   -4.5379936459E+01   -4.4835637889E+01   -4.4170428829E+01
   -4.3669810752E+01   -4.3383189132E+01   -4.3240917138E+01   -4.3169402654E+01
   -4.3124199825E+01   -4.3084688624E+01   -4.3043231205E+01   -4.2997972090E+01
   -4.2949235488E+01   -4.2897978574E+01   -4.2845202102E+01   -4.2791753770E+01
   -4.2738274377E+01   -4.2685187420E+01   -4.2632697520E+01   -4.2580788433E+01
   -4.2529221473E+01   -4.2477538043E+01   -4.2425069784E+01   -4.2370959742E+01
   -4.2314195888E+01   -4.2253657499E+01   -4.2188172447E+01   -4.2116582004E+01
   -4.2037808084E+01   -4.1950919229E+01   -4.1855186668E+01   -4.1750127943E+01
   -4.1635534224E+01   -4.1511477380E+01   -4.1378297640E+01   -4.1236573857E+01
   -4.1087079246E+01   -4.0930727481E+01   -4.0768514641E+01   -4.0601462598E+01
   -4.0430567861E+01   -4.0256760427E+01   -4.0080874519E+01   -3.9903631204E+01
   -3.9725629805E+01   -3.9547352943E+01   -3.9369173757E+01   -3.9191368886E+01
   -3.9014135132E+01   -3.8837602048E+01   -3.8661848776E+01   -3.8486914109E+01
   -3.8312808335E+01   -3.8139520523E+01   -3.7967024724E+01   -3.7795284589E+01
   -3.7624255569E+01   -3.7453886798E+01   -3.7284121563E+01   -3.7114896763E+01
   -3.6946142222E+01   -3.6777779520E+01   -3.6609720746E+01   -3.6441866809E+01
   -3.6274106478E+01   -3.6106315721E+01   -3.5938357449E+01   -3.5770082003E+01
   -3.5601328488E+01   -3.5431926890E+01   -3.5261701152E+01   -3.5090473254E+01
   -3.4918067754E+01   -3.4744316901E+01   -3.4569065963E+01   -3.4392178460E+01
   -3.4213540966E+01   -3.4033067175E+01   -3.3850700958E+01   -3.3666418214E+01
   -3.3480227425E+01   -3.3292168904E+01   -3.3102312851E+01   -3.2910756380E+01
   -3.2717619774E+01   -3.2523042124E+01   -3.2327177193E+01   -3.2130188792E+01
   -3.1932246258E+01   -3.1733520819E+01   -3.1534182321E+01   -3.1334396537E+01
   -3.1134323092E+01   -3.0934114348E+01   -3.0733913340E+01   -3.0533853848E+01
   -3.0334060399E+01   -3.0134648304E+01   -2.9935724272E+01   -2.9737386493E+01
   -2.9539724710E+01   -2.9342822066E+01   -2.9146755322E+01   -2.8951595956E+01
   -2.8757409186E+01   -2.8564256066E+01   -2.8372193653E+01   -2.8181275738E+01
   -2.7991551827E+01   -2.7803068809E+01   -2.7615870999E+01   -2.7430000130E+01
   -2.7245494879E+01   -2.7062391924E+01   -2.6880726161E+01   -2.6700529201E+01
   -2.6521830796E+01   -2.6344659025E+01   -2.6169038814E+01   -2.5994992922E+01
   -2.5822542604E+01   -2.5651705724E+01   -2.5482497959E+01   -2.5314933676E+01
   -2.5149023307E+01   -2.4984775696E+01   -2.4822198063E+01   -2.4661293782E+01
   -2.4502065430E+01   -2.4344513002E+01   -2.4188633993E+01   -2.4034425400E+01
   -2.3881880899E+01   -2.3730993676E+01   -2.3581755333E+01   -2.3434155721E+01
   -2.3288184610E+01   -2.3143829729E+01   -2.3001078881E+01   -2.2859918821E+01
   -2.2720335795E+01   -2.2582315827E+01   -2.2445844011E+01   -2.2310905662E+01
   -2.2177484857E+01   -2.2045565759E+01   -2.1915131346E+01   -2.1786163866E+01
   -2.1658644693E+01   -2.1532552991E+01   -2.1407867813E+01   -2.1284563724E+01
   -2.1162616518E+01   -2.1041994529E+01   -2.0922669040E+01   -2.0804601138E+01
   -2.0687755220E+01   -2.0572089314E+01   -2.0457563143E+01   -2.0344135818E+01
   -2.0231766540E+01   -2.0120414797E+01   -2.0010039606E+01   -1.9900601944E+01
   -1.9792061087E+01   -1.9684381523E+01   -1.9577523858E+01   -1.9471458215E+01
   -1.9366148808E+01   -1.9261572663E+01   -1.9157700447E+01   -1.9054516588E+01
   -1.8952001012E+01   -1.8850145076E+01   -1.8748939884E+01   -1.8648382720E+01
   -1.8548476023E+01   -1.8449222110E+01   -1.8350632676E+01   -1.8252714749E+01
   -1.8155485137E+01   -1.8058956194E+01   -1.7963145069E+01   -1.7868068196E+01
   -1.7773741319E+01   -1.7680180809E+01   -1.7587401942E+01   -1.7495416933E+01
   -1.7404241262E+01   -1.7313881853E+01   -1.7224350786E+01   -1.7135653139E+01
   -1.7047794517E+01   -1.6960779830E+01   -1.6874608107E+01   -1.6789283387E+01
   -1.6704801086E+01   -1.6621160277E+01   -1.6538357186E+01   -1.6456385845E+01
   -1.6375242637E+01   -1.6294919058E+01   -1.6215408991E+01   -1.6136704496E+01
   -1.6058796844E+01   -1.5981678349E+01   -1.5905339209E+01   -1.5829770595E+01
   -1.5754963125E+01   -1.5680907004E+01   -1.5607592873E+01   -1.5535010760E+01
   -1.5463150894E+01   -1.5392003488E+01   -1.5321558665E+01   -1.5251806546E+01
   -1.5182737354E+01   -1.5114341311E+01   -1.5046608524E+01   -1.4979529452E+01
   -1.4913094356E+01   -1.4847293580E+01   -1.4782117769E+01   -1.4717557270E+01
   -1.4653602796E+01   -1.4590245180E+01   -1.4527474892E+01   -1.4465283102E+01
   -1.4403660821E+01   -1.4342598756E+01   -1.4282088526E+01   -1.4222121312E+01
   -1.4162688267E+01   -1.4103781341E+01   -1.4045391972E+01   -1.3987511804E+01
   -1.3930133152E+01   -1.3873247753E+01   -1.3816847771E+01   -1.3760925918E+01
   -1.3705474276E+01   -1.3650485534E+01   -1.3595952838E+01   -1.3541868664E+01
   -1.3488226212E+01   -1.3435019092E+01   -1.3382240226E+01   -1.3329883281E+01
   -1.3277942365E+01   -1.3226410891E+01   -1.3175282932E+01   -1.3124553119E+01
   -1.3074215398E+01   -1.3024264175E+01   -1.2974694615E+01   -1.2925501229E+01
   -1.2876678682E+01   -1.2828222670E+01   -1.2780128283E+01   -1.2732390377E+01
   -1.2685005163E+01   -1.2637968291E+01   -1.2591274802E+01   -1.2544921337E+01
   -1.2498903953E+01   -1.2453218274E+01   -1.2407860884E+01   -1.2362828313E+01
   -1.2318116710E+01   -1.2273722586E+01   -1.2229642841E+01   -1.2185874056E+01
   -1.2142412677E+01   -1.2099255929E+01   -1.2056400706E+01   -1.2013843595E+01
   -1.1971581904E+01   -1.1929612794E+01   -1.1887933214E+01   -1.1846540313E+01
   -1.1805431540E+01   -1.1764604161E+01   -1.1724055213E+01   -1.1683782350E+01
   -1.1643782983E+01   -1.1604054406E+01   -1.1564594111E+01   -1.1525399708E+01
   -1.1486468705E+01   -1.1447798488E+01   -1.1409386793E+01   -1.1371231213E+01
   -1.1333329284E+01   -1.1295678627E+01   -1.1258276948E+01   -1.1221121893E+01
   -1.1184211035E+01   -1.1147542128E+01   -1.1111112870E+01   -1.1074920917E+01
   -1.1038963921E+01   -1.1003239713E+01   -1.0967746040E+01   -1.0932480506E+01
   -1.0897440959E+01   -1.0862625356E+01   -1.0828031553E+01   -1.0793657193E+01
   -1.0759500401E+01   -1.0725559174E+01   -1.0691831462E+01   -1.0658315094E+01
   -1.0625008270E+01   -1.0591909032E+01   -1.0559015358E+01   -1.0526325216E+01
   -1.0493836909E+01   -1.0461548576E+01   -1.0429458262E+01   -1.0397564106E+01
   -1.0365864468E+01   -1.0334357578E+01   -1.0303041561E+01   -1.0271914690E+01
   -1.0240975376E+01   -1.0210221931E+01   -1.0179652551E+01   -1.0149265612E+01
   -1.0119059593E+01   -1.0089032886E+01   -1.0059183769E+01   -1.0029510694E+01
   -1.0000012213E+01   -9.9706867907E+00   -9.9415327939E+00   -9.9125487238E+00
   -9.8837332125E+00   -9.8550847959E+00   -9.8266019319E+00   -9.7982831490E+00
   -9.7701271633E+00   -9.7421325787E+00   -9.7142979503E+00   -9.6866218122E+00
   -9.6591029680E+00   -9.6317400869E+00   -9.6045318260E+00   -9.5774767056E+00
   -9.5505736200E+00   -9.5238213003E+00   -9.4972184773E+00   -9.4707637404E+00
   -9.4444559764E+00   -9.4182940084E+00   -9.3922766265E+00   -9.3664025309E+00
   -9.3406705461E+00   -9.3150796021E+00   -9.2896285452E+00   -9.2643161931E+00
   -9.2391412918E+00   -9.2141028786E+00   -9.1891998536E+00   -9.1644311170E+00
   -9.1397954441E+00   -9.1152918591E+00   -9.0909193523E+00   -9.0666768751E+00
   -9.0425633282E+00   -9.0185776181E+00   -8.9947188547E+00   -8.9709860383E+00
   -8.9473781690E+00   -8.9238941225E+00   -8.9005330286E+00   -8.8772939656E+00
   -8.8541759800E+00   -8.8311780813E+00   -8.8082992486E+00   -8.7855386879E+00
   -8.7628954903E+00   -8.7403687472E+00   -8.7179574561E+00   -8.6956607704E+00
   -8.6734778805E+00   -8.6514079198E+00   -8.6294500218E+00   -8.6076031841E+00
   -8.5858667064E+00   -8.5642397700E+00   -8.5427215485E+00   -8.5213111838E+00
   -8.5000077799E+00   -8.4788106590E+00   -8.4577190334E+00   -8.4367321153E+00
   -8.4158490557E+00   -8.3950690651E+00   -8.3743914711E+00   -8.3538155229E+00
   -8.3333404694E+00   -8.3129654785E+00   -8.2926898448E+00   -8.2725129080E+00
   -8.2524339522E+00   -8.2324522614E+00   -8.2125670276E+00   -8.1927776081E+00
   -8.1730833614E+00   -8.1534836051E+00   -8.1339776563E+00   -8.1145647377E+00
   -8.0952442492E+00   -8.0760155750E+00   -8.0568780643E+00   -8.0378310663E+00
   -8.0188738397E+00   -8.0000058086E+00   -7.9812263891E+00   -7.9625349606E+00
   -7.9439309028E+00   -7.9254135163E+00   -7.9069822316E+00   -7.8886365027E+00
   -7.8703757381E+00   -7.8521993460E+00   -7.8341066748E+00   -7.8160971446E+00
   -7.7981702530E+00   -7.7803254359E+00   -7.7625621293E+00   -7.7448797341E+00
   -7.7272776454E+00   -7.7097554085E+00   -7.6923124856E+00   -7.6749483392E+00
   -7.6576624280E+00   -7.6404541081E+00   -7.6233229767E+00   -7.6062685208E+00
   -7.5892902280E+00   -7.5723875854E+00   -7.5555600016E+00   -7.5388070248E+00
   -7.5221282004E+00   -7.5055230395E+00   -7.4889910533E+00   -7.4725317187E+00
   -7.4561445119E+00   -7.4398290428E+00   -7.4235848454E+00   -7.4074114535E+00
   -7.3913084012E+00   -7.3752751316E+00   -7.3593112715E+00   -7.3434163926E+00
   -7.3275900507E+00   -7.3118318014E+00   -7.2961411652E+00   -7.2805176694E+00
   -7.2649609604E+00   -7.2494706145E+00   -7.2340462081E+00   -7.2186873178E+00
   -7.2033934437E+00   -7.1881642259E+00   -7.1729992872E+00   -7.1578982237E+00
   -7.1428606315E+00   -7.1278860979E+00   -7.1129741390E+00   -7.0981244598E+00
   -7.0833366754E+00   -7.0686104005E+00   -7.0539452502E+00   -7.0393408034E+00
   -7.0247966551E+00   -7.0103125003E+00   -6.9958879718E+00   -6.9815227026E+00
   -6.9672163255E+00   -6.9529684184E+00   -6.9387786375E+00   -6.9246466740E+00
   -6.9105721777E+00   -6.8965547987E+00   -6.8825941870E+00   -6.8686899261E+00
   -6.8548417166E+00   -6.8410492519E+00   -6.8273121982E+00   -6.8136302219E+00
   -6.8000029892E+00   -6.7864300956E+00   -6.7729112698E+00   -6.7594462139E+00
   -6.7460346098E+00   -6.7326761392E+00   -6.7193704839E+00   -6.7061172570E+00
   -6.6929162003E+00   -6.6797670306E+00   -6.6666694445E+00   -6.6536231387E+00
   -6.6406278099E+00   -6.6276830935E+00   -6.6147887310E+00   -6.6019444593E+00
   -6.5891499890E+00   -6.5764050311E+00   -6.5637092962E+00   -6.5510624479E+00
   -6.5384642136E+00   -6.5259143553E+00   -6.5134125976E+00   -6.5009586645E+00
   -6.4885522804E+00   -6.4761931417E+00   -6.4638809493E+00   -6.4516154955E+00
   -6.4393965176E+00   -6.4272237526E+00   -6.4150969375E+00   -6.4030158065E+00
   -6.3909800232E+00   -6.3789894136E+00   -6.3670437273E+00   -6.3551427135E+00
   -6.3432861217E+00   -6.3314737011E+00   -6.3197051485E+00   -6.3079802468E+00
   -6.2962987838E+00   -6.2846605204E+00   -6.2730652177E+00   -6.2615126368E+00
   -6.2500025216E+00   -6.2385345924E+00   -6.2271086814E+00   -6.2157245608E+00
   -6.2043820028E+00   -6.1930807796E+00   -6.1818206633E+00   -6.1706013737E+00
   -6.1594227193E+00   -6.1482845061E+00   -6.1371865169E+00   -6.1261285345E+00
   -6.1151103417E+00   -6.1041317146E+00   -6.0931923770E+00   -6.0822921881E+00
   -6.0714309410E+00   -6.0606084285E+00   -6.0498244435E+00   -6.0390787790E+00
   -6.0283711984E+00   -6.0177014850E+00   -6.0070694841E+00   -5.9964749984E+00
   -5.9859178304E+00   -5.9753977826E+00   -5.9649146576E+00   -5.9544682127E+00
   -5.9440582762E+00   -5.9336846851E+00   -5.9233472513E+00   -5.9130457863E+00
   -5.9027801021E+00   -5.8925500104E+00   -5.8823552681E+00   -5.8721957349E+00
   -5.8620712449E+00   -5.8519816188E+00   -5.8419266772E+00   -5.8319062405E+00
   -5.8219201293E+00   -5.8119681059E+00   -5.8020500476E+00   -5.7921657919E+00
   -5.7823151676E+00   -5.7724980036E+00   -5.7627141289E+00   -5.7529633724E+00
   -5.7432455067E+00   -5.7335604146E+00   -5.7239079420E+00   -5.7142879257E+00
   -5.7047002028E+00   -5.6951446099E+00   -5.6856209841E+00   -5.6761291130E+00
   -5.6666688734E+00   -5.6572401248E+00
  </PP_LOCAL>
 <PP_NONLOCAL>
   <PP_BETA.1
       type="real"
       size=" 602"
       columns="4"
       index="1"
       angular_momentum="0"
       cutoff_radius_index=" 326"
       cutoff_radius="    3.2500000000E+00" >
    0.0000000000E+00    2.3280783621E-02    4.6555177073E-02    6.9816781946E-02
    9.3059183364E-02    1.1627594180E-01    1.3946058495E-01    1.6260659963E-01
    1.8570742384E-01    2.0875643887E-01    2.3174696154E-01    2.5467223664E-01
    2.7752542943E-01    3.0029961842E-01    3.2298778834E-01    3.4558282325E-01
    3.6807750004E-01    3.9046448208E-01    4.1273631322E-01    4.3488541211E-01
    4.5690406687E-01    4.7878443009E-01    5.0051851428E-01    5.2209818771E-01
    5.4351517069E-01    5.6476103238E-01    5.8582718804E-01    6.0670489688E-01
    6.2738526038E-01    6.4785922133E-01    6.6811756335E-01    6.8815091117E-01
    7.0794973149E-01    7.2750433463E-01    7.4680487681E-01    7.6584136329E-01
    7.8460365214E-01    8.0308145901E-01    8.2126436251E-01    8.3914181053E-01
    8.5670312746E-01    8.7393752226E-01    8.9083409728E-01    9.0738185824E-01
    9.2356972485E-01    9.3938654259E-01    9.5482109514E-01    9.6986211794E-01
    9.8449831291E-01    9.9871836348E-01    1.0125109508E+00    1.0258647704E+00
    1.0387685522E+00    1.0512110768E+00    1.0631811963E+00    1.0746678563E+00
    1.0856601130E+00    1.0961471618E+00    1.1061183518E+00    1.1155632180E+00
    1.1244714974E+00    1.1328331584E+00    1.1406384265E+00    1.1478778013E+00
    1.1545420969E+00    1.1606224567E+00    1.1661103785E+00    1.1709977522E+00
    1.1752768788E+00    1.1789404967E+00    1.1819818060E+00    1.1843945041E+00
    1.1861728068E+00    1.1873114718E+00    1.1878058260E+00    1.1876517905E+00
    1.1868459032E+00    1.1853853441E+00    1.1832679624E+00    1.1804922908E+00
    1.1770575693E+00    1.1729637649E+00    1.1682115900E+00    1.1628025201E+00
    1.1567388089E+00    1.1500235034E+00    1.1426604563E+00    1.1346543375E+00
    1.1260106432E+00    1.1167357038E+00    1.1068366899E+00    1.0963216157E+00